 -4.000000000000000E-002    0.000000000000000E+000
 -3.990000000000000E-002    0.000000000000000E+000
 -3.980000000000000E-002    0.000000000000000E+000
 -3.970000000000000E-002    0.000000000000000E+000
 -3.960000000000000E-002    0.000000000000000E+000
 -3.950000000000000E-002    0.000000000000000E+000
 -3.940000000000000E-002    0.000000000000000E+000
 -3.930000000000000E-002    0.000000000000000E+000
 -3.920000000000000E-002    0.000000000000000E+000
 -3.910000000000000E-002    0.000000000000000E+000
 -3.900000000000000E-002    0.000000000000000E+000
 -3.890000000000000E-002    0.000000000000000E+000
 -3.880000000000000E-002    2.512847408843451E-041
 -3.870000000000000E-002    6.829774817550435E-040
 -3.860000000000000E-002    9.496892657962281E-039
 -3.850000000000000E-002    9.003233293212317E-038
 -3.840000000000000E-002    6.542210402061452E-037
 -3.830000000000000E-002    3.883780218647130E-036
 -3.820000000000000E-002    1.960400948716624E-035
 -3.810000000000000E-002    8.646127443877307E-035
 -3.800000000000000E-002    3.397771617003221E-034
 -3.790000000000000E-002    1.207306438106305E-033
 -3.780000000000000E-002    3.922446136121536E-033
 -3.770000000000000E-002    1.175417774092849E-032
 -3.760000000000000E-002    3.270928029257006E-032
 -3.750000000000000E-002    8.497064048741551E-032
 -3.740000000000000E-002    2.068632429948835E-031
 -3.730000000000000E-002    4.732308962475539E-031
 -3.720000000000000E-002    1.018690851442769E-030
 -3.710000000000000E-002    2.063254335388520E-030
 -3.700000000000000E-002    3.923875913563753E-030
 -3.690000000000000E-002    6.971901860073890E-030
 -3.680000000000000E-002    1.145580488162062E-029
 -3.670000000000000E-002    1.704740177544762E-029
 -3.660000000000000E-002    2.189045741956237E-029
 -3.650000000000000E-002    2.084938085702044E-029
 -3.640000000000000E-002    2.612677486175494E-030
 -3.630000000000000E-002   -5.462354471429903E-029
 -3.620000000000000E-002   -1.888621498733083E-028
 -3.610000000000000E-002   -4.606681790648277E-028
 -3.600000000000000E-002   -9.581632699143160E-028
 -3.590000000000000E-002   -1.796579313299375E-027
 -3.580000000000000E-002   -3.105456574395901E-027
 -3.570000000000000E-002   -4.993147174383715E-027
 -3.560000000000000E-002   -7.474952414328355E-027
 -3.550000000000000E-002   -1.034930473729436E-026
 -3.540000000000000E-002   -1.300803524624173E-026
 -3.530000000000000E-002   -1.417493032874529E-026
 -3.520000000000000E-002   -1.158508962515313E-026
 -3.510000000000000E-002   -1.649616652758334E-027
 -3.500000000000000E-002    2.080156802232632E-026
 -3.490000000000000E-002    6.254180217598498E-026
 -3.480000000000000E-002    1.315029585991282E-025
 -3.470000000000000E-002    2.355595131113962E-025
 -3.460000000000000E-002    3.801886977510021E-025
 -3.450000000000000E-002    5.646623944513000E-025
 -3.440000000000000E-002    7.765345623057789E-025
 -3.430000000000000E-002    9.844420064459910E-025
 -3.420000000000000E-002    1.129681647668968E-024
 -3.410000000000000E-002    1.117692381482380E-024
 -3.400000000000000E-002    8.114453270495517E-025
 -3.390000000000000E-002    2.978018712029376E-026
 -3.380000000000000E-002   -1.445227456024325E-024
 -3.370000000000000E-002   -3.846935586987713E-024
 -3.360000000000000E-002   -7.383591128309448E-024
 -3.350000000000000E-002   -1.217392017922920E-023
 -3.340000000000000E-002   -1.815618069508088E-023
 -3.330000000000000E-002   -2.497176226858183E-023
 -3.320000000000000E-002   -3.183028600913490E-023
 -3.310000000000000E-002   -3.737117309220993E-023
 -3.300000000000000E-002   -3.954649712867372E-023
 -3.290000000000000E-002   -3.556077713743729E-023
 -3.280000000000000E-002   -2.191376207078645E-023
 -3.270000000000000E-002    5.400002666345426E-024
 -3.260000000000000E-002    5.047862064034914E-023
 -3.250000000000000E-002    1.168373670404565E-022
 -3.240000000000000E-002    2.064383854975493E-022
 -3.230000000000000E-002    3.184267709926348E-022
 -3.220000000000000E-002    4.476240932497860E-022
 -3.210000000000000E-002    5.828972050782120E-022
 -3.200000000000000E-002    7.056015665811614E-022
 -3.190000000000000E-002    7.883885333004069E-022
 -3.180000000000000E-002    7.947547375054553E-022
 -3.170000000000000E-002    6.797855341702149E-022
 -3.160000000000000E-002    3.925844878993993E-022
 -3.150000000000000E-002   -1.191343151317513E-022
 -3.140000000000000E-002   -9.019062927193622E-022
 -3.130000000000000E-002   -1.986638706506903E-021
 -3.120000000000000E-002   -3.376115226660675E-021
 -3.110000000000000E-002   -5.030438161466538E-021
 -3.100000000000000E-002   -6.851523702308902E-021
 -3.090000000000000E-002   -8.668413036838196E-021
 -3.080000000000000E-002   -1.022586351200330E-020
 -3.070000000000000E-002   -1.117933344950399E-020
 -3.060000000000000E-002   -1.110000231375092E-020
 -3.050000000000000E-002   -9.493690922346439E-021
 -3.040000000000000E-002   -5.837344322937209E-021
 -3.030000000000000E-002    3.640694683948473E-022
 -3.020000000000000E-002    9.498950458821133E-021
 -3.010000000000000E-002    2.174987084464828E-020
 -3.000000000000000E-002    3.697820953737125E-020
 -2.990000000000000E-002    5.460110268336585E-020
 -2.980000000000000E-002    7.347384862713894E-020
 -2.970000000000000E-002    9.179562281473680E-020
 -2.960000000000000E-002    1.070606186450154E-019
 -2.950000000000000E-002    1.160796436682387E-019
 -2.940000000000000E-002    1.150978917961909E-019
 -2.930000000000000E-002    1.000320976702600E-019
 -2.920000000000000E-002    6.684351278656464E-020
 -2.910000000000000E-002    1.205172552628150E-020
 -2.900000000000000E-002   -6.662232003782066E-020
 -2.890000000000000E-002   -1.695168708923464E-019
 -2.880000000000000E-002   -2.942510252520186E-019
 -2.870000000000000E-002   -4.349908012836269E-019
 -2.860000000000000E-002   -5.818674231513710E-019
 -2.850000000000000E-002   -7.206736050927245E-019
 -2.840000000000000E-002   -8.329725221108746E-019
 -2.830000000000000E-002   -8.967471971875898E-019
 -2.820000000000000E-002   -8.876931144069300E-019
 -2.810000000000000E-002   -7.812100261364642E-019
 -2.800000000000000E-002   -5.550811036705157E-019
 -2.790000000000000E-002   -1.927378646711832E-019
 -2.780000000000000E-002    3.130926038398945E-019
 -2.770000000000000E-002    9.566693542688531E-019
 -2.760000000000000E-002    1.715860333505297E-018
 -2.750000000000000E-002    2.549595510610099E-018
 -2.740000000000000E-002    3.396677385562825E-018
 -2.730000000000000E-002    4.176462069345934E-018
 -2.720000000000000E-002    4.791839191754614E-018
 -2.710000000000000E-002    5.134784309713929E-018
 -2.700000000000000E-002    5.094527381965539E-018
 -2.690000000000000E-002    4.568091265583223E-018
 -2.680000000000000E-002    3.472624491031349E-018
 -2.670000000000000E-002    1.758618414825973E-018
 -2.660000000000000E-002   -5.772088337893698E-019
 -2.650000000000000E-002   -3.480801327653360E-018
 -2.640000000000000E-002   -6.832970486122704E-018
 -2.630000000000000E-002   -1.044640653591196E-017
 -2.620000000000000E-002   -1.406873902046763E-017
 -2.610000000000000E-002   -1.739246545718521E-017
 -2.600000000000000E-002   -2.007195852824062E-017
 -2.590000000000000E-002   -2.174705360809856E-017
 -2.580000000000000E-002   -2.207190808200758E-017
 -2.570000000000000E-002   -2.074709416423880E-017
 -2.560000000000000E-002   -1.755226073001231E-017
 -2.550000000000000E-002   -1.237629998440436E-017
 -2.540000000000000E-002   -5.241871659512205E-018
 -2.530000000000000E-002    3.678577342633449E-018
 -2.520000000000000E-002    1.405753806660625E-017
 -2.510000000000000E-002    2.541915689140016E-017
 -2.500000000000000E-002    3.715798937360610E-017
 -2.490000000000000E-002    4.856857249774096E-017
 -2.480000000000000E-002    5.888330865029570E-017
 -2.470000000000000E-002    6.731529851623596E-017
 -2.460000000000000E-002    7.310216002906350E-017
 -2.450000000000000E-002    7.554697288927150E-017
 -2.440000000000000E-002    7.405314074839247E-017
 -2.430000000000000E-002    6.815115558947033E-017
 -2.420000000000000E-002    5.751697251178856E-017
 -2.410000000000000E-002    4.198348948568524E-017
 -2.400000000000000E-002    2.154838072107149E-017
 -2.390000000000000E-002   -3.617256881953794E-018
 -2.380000000000000E-002   -3.315457425802442E-017
 -2.370000000000000E-002   -6.649279396451603E-017
 -2.360000000000000E-002   -1.028129100821056E-016
 -2.350000000000000E-002   -1.410000649492592E-016
 -2.340000000000000E-002   -1.795893940939094E-016
 -2.330000000000000E-002   -2.167144934260933E-016
 -2.320000000000000E-002   -2.500717867833527E-016
 -2.310000000000000E-002   -2.769171950599420E-016
 -2.300000000000000E-002   -2.941125479060336E-016
 -2.290000000000000E-002   -2.982380726412946E-016
 -2.280000000000000E-002   -2.857827171188056E-016
 -2.270000000000000E-002   -2.534166285606379E-016
 -2.260000000000000E-002   -1.983398056384704E-016
 -2.250000000000000E-002   -1.186886946515215E-016
 -2.240000000000000E-002   -1.396943238717433E-017
 -2.230000000000000E-002    1.145251244705481E-016
 -2.220000000000000E-002    2.633669004616722E-016
 -2.210000000000000E-002    4.267685762704822E-016
 -2.200000000000000E-002    5.965387773679966E-016
 -2.190000000000000E-002    7.622606153781366E-016
 -2.180000000000000E-002    9.117220475008050E-016
 -2.170000000000000E-002    1.031601682735428E-015
 -2.160000000000000E-002    1.108386509756300E-015
 -2.150000000000000E-002    1.129465719538639E-015
 -2.140000000000000E-002    1.084317224723941E-015
 -2.130000000000000E-002    9.656790048748842E-016
 -2.120000000000000E-002    7.705826457805857E-016
 -2.110000000000000E-002    5.011255864552747E-016
 -2.100000000000000E-002    1.648702708391840E-016
 -2.090000000000000E-002   -2.252129570880713E-016
 -2.080000000000000E-002   -6.512999723658069E-016
 -2.070000000000000E-002   -1.091754049894756E-015
 -2.060000000000000E-002   -1.522584903388372E-015
 -2.050000000000000E-002   -1.919200605367858E-015
 -2.040000000000000E-002   -2.258281137002869E-015
 -2.030000000000000E-002   -2.519569658789605E-015
 -2.020000000000000E-002   -2.687370985449480E-015
 -2.010000000000000E-002   -2.751560734136547E-015
 -2.000000000000000E-002   -2.707959106650731E-015
 -1.990000000000000E-002   -2.557989679196230E-015
 -1.980000000000000E-002   -2.307635437989361E-015
 -1.970000000000000E-002   -1.965805813095648E-015
 -1.960000000000000E-002   -1.542323601690398E-015
 -1.950000000000000E-002   -1.045828218951588E-015
 -1.940000000000000E-002   -4.819399876113306E-016
 -1.930000000000000E-002    1.479508203417066E-016
 -1.920000000000000E-002    8.469438975979346E-016
 -1.910000000000000E-002    1.621697582507636E-015
 -1.900000000000000E-002    2.480197614721342E-015
 -1.890000000000000E-002    3.428291040241008E-015
 -1.880000000000000E-002    4.465240390084429E-015
 -1.870000000000000E-002    5.578750306037377E-015
 -1.860000000000000E-002    6.740078589050265E-015
 -1.850000000000000E-002    7.899970485027950E-015
 -1.840000000000000E-002    8.986192324722822E-015
 -1.830000000000000E-002    9.903396904803434E-015
 -1.820000000000000E-002    1.053590722155350E-014
 -1.810000000000000E-002    1.075377098709680E-014
 -1.800000000000000E-002    1.042209365530945E-014
 -1.790000000000000E-002    9.413304078209197E-015
 -1.780000000000000E-002    7.621575413683088E-015
 -1.770000000000000E-002    4.978264514277819E-015
 -1.760000000000000E-002    1.466916522113891E-015
 -1.750000000000000E-002   -2.863824100505446E-015
 -1.740000000000000E-002   -7.891074687719946E-015
 -1.730000000000000E-002   -1.341390235687367E-014
 -1.720000000000000E-002   -1.915607096352412E-014
 -1.710000000000000E-002   -2.477605325451606E-014
 -1.700000000000000E-002   -2.988440485875800E-014
 -1.690000000000000E-002   -3.406782140335837E-014
 -1.680000000000000E-002   -3.691848830642689E-014
 -1.670000000000000E-002   -3.806658465722524E-014
 -1.660000000000000E-002   -3.721331839955595E-014
 -1.650000000000000E-002   -3.416147792504555E-014
 -1.640000000000000E-002   -2.884046734466107E-014
 -1.630000000000000E-002   -2.132304415216309E-014
 -1.620000000000000E-002   -1.183156667507514E-014
 -1.610000000000000E-002   -7.324016672519088E-016
 -1.600000000000000E-002    1.148174426529269E-014
 -1.590000000000000E-002    2.422064111148074E-014
 -1.580000000000000E-002    3.683434863253468E-014
 -1.570000000000000E-002    4.865686723305607E-014
 -1.560000000000000E-002    5.905165478978938E-014
 -1.550000000000000E-002    6.745468399235369E-014
 -1.540000000000000E-002    7.341076267449646E-014
 -1.530000000000000E-002    7.659945511379017E-014
 -1.520000000000000E-002    7.684795242993499E-014
 -1.510000000000000E-002    7.412967346178168E-014
 -1.500000000000000E-002    6.854910277263171E-014
 -1.490000000000000E-002    6.031498796009440E-014
 -1.480000000000000E-002    4.970572791646295E-014
 -1.470000000000000E-002    3.703189652279730E-014
 -1.460000000000000E-002    2.260156079040776E-014
 -1.450000000000000E-002    6.693966541192475E-015
 -1.440000000000000E-002   -1.045356965993190E-014
 -1.430000000000000E-002   -2.864237075328368E-014
 -1.420000000000000E-002   -4.769151679624781E-014
 -1.410000000000000E-002   -6.740094195151996E-014
 -1.400000000000000E-002   -8.750253047599673E-014
 -1.390000000000000E-002   -1.076058865287804E-013
 -1.380000000000000E-002   -1.271472562367435E-013
 -1.370000000000000E-002   -1.453510795861380E-013
 -1.360000000000000E-002   -1.612134977988329E-013
 -1.350000000000000E-002   -1.735158707833326E-013
 -1.340000000000000E-002   -1.808735510874865E-013
 -1.330000000000000E-002   -1.818216810959576E-013
 -1.320000000000000E-002   -1.749351465755863E-013
 -1.310000000000000E-002   -1.589751796465077E-013
 -1.300000000000000E-002   -1.330507257699351E-013
 -1.290000000000000E-002   -9.677883953125500E-014
 -1.280000000000000E-002   -5.042636928969552E-014
 -1.270000000000000E-002    4.985532260301712E-015
 -1.260000000000000E-002    6.763068631192512E-014
 -1.250000000000000E-002    1.348940171683301E-013
 -1.240000000000000E-002    2.034621222800264E-013
 -1.230000000000000E-002    2.694886301485948E-013
 -1.220000000000000E-002    3.288269902316938E-013
 -1.210000000000000E-002    3.773158264342747E-013
 -1.200000000000000E-002    4.110947530024524E-013
 -1.190000000000000E-002    4.269239912820251E-013
 -1.180000000000000E-002    4.224781165999932E-013
 -1.170000000000000E-002    3.965850836262773E-013
 -1.160000000000000E-002    3.493847751629643E-013
 -1.150000000000000E-002    2.823882280431579E-013
 -1.140000000000000E-002    1.984271082885446E-013
 -1.130000000000000E-002    1.014935419401164E-013
 -1.120000000000000E-002   -3.518608000050073E-015
 -1.110000000000000E-002   -1.111500406180212E-013
 -1.100000000000000E-002   -2.157605404484803E-013
 -1.090000000000000E-002   -3.119272879269417E-013
 -1.080000000000000E-002   -3.948204851788318E-013
 -1.070000000000000E-002   -4.605218510850911E-013
 -1.060000000000000E-002   -5.062584134109897E-013
 -1.050000000000000E-002   -5.305317040865136E-013
 -1.040000000000000E-002   -5.331343584623742E-013
 -1.030000000000000E-002   -5.150585923908930E-013
 -1.020000000000000E-002   -4.783117203364987E-013
 -1.010000000000000E-002   -4.256636207443949E-013
 -1.000000000000000E-002   -3.603578706711058E-013
 -9.899999999999999E-003   -2.858204530775740E-013
 -9.800000000000000E-003   -2.053984815867783E-013
 -9.699999999999999E-003   -1.221550852014221E-013
 -9.599999999999999E-003   -3.873896884603646E-014
 -9.500000000000000E-003    4.266553559312636E-014
 -9.399999999999999E-003    1.203118512562671E-013
 -9.299999999999999E-003    1.928044110979801E-013
 -9.200000000000000E-003    2.589744194637091E-013
 -9.099999999999999E-003    3.177473812334937E-013
 -8.999999999999999E-003    3.680299857205302E-013
 -8.900000000000000E-003    4.086415582671914E-013
 -8.799999999999999E-003    4.383073371008458E-013
 -8.699999999999999E-003    4.557195185065075E-013
 -8.600000000000000E-003    4.596617201094514E-013
 -8.499999999999999E-003    4.491806594464457E-013
 -8.399999999999999E-003    4.237805369224209E-013
 -8.300000000000000E-003    3.836096791759172E-013
 -8.199999999999999E-003    3.296088308860760E-013
 -8.100000000000000E-003    2.635939120836875E-013
 -8.000000000000000E-003    1.882541065393044E-013
 -7.899999999999999E-003    1.070573649056280E-013
 -7.800000000000000E-003    2.406808591821051E-014
 -7.699999999999999E-003   -5.630581774279124E-014
 -7.599999999999999E-003   -1.296095048480092E-013
 -7.499999999999999E-003   -1.916485438679340E-013
 -7.399999999999999E-003   -2.387721770784613E-013
 -7.299999999999999E-003   -2.681032901335806E-013
 -7.199999999999999E-003   -2.776923158636968E-013
 -7.100000000000000E-003   -2.665870255188782E-013
 -6.999999999999999E-003   -2.348222287816190E-013
 -6.899999999999999E-003   -1.833465637403483E-013
 -6.800000000000000E-003   -1.139132553848212E-013
 -6.699999999999999E-003   -2.896670177384719E-014
 -6.599999999999999E-003    6.844516083188240E-014
 -6.499999999999999E-003    1.747094512697207E-013
 -6.399999999999999E-003    2.856299443507729E-013
 -6.299999999999999E-003    3.963571547429446E-013
 -6.199999999999999E-003    5.012921642428906E-013
 -6.100000000000000E-003    5.940042250639091E-013
 -5.999999999999999E-003    6.672088609075883E-013
 -5.899999999999999E-003    7.128584487492542E-013
 -5.800000000000000E-003    7.223861764840472E-013
 -5.699999999999999E-003    6.871256444236926E-013
 -5.599999999999999E-003    5.989083581342019E-013
 -5.499999999999999E-003    4.508040300809498E-013
 -5.399999999999999E-003    2.379438307083858E-013
 -5.299999999999999E-003   -4.166352450791468E-014
 -5.199999999999999E-003   -3.864241832878922E-013
 -5.099999999999999E-003   -7.906682875203724E-013
 -4.999999999999999E-003   -1.244467464395934E-012
 -4.899999999999999E-003   -1.733821447314236E-012
 -4.799999999999999E-003   -2.241232469146073E-012
 -4.699999999999999E-003   -2.746625260966343E-012
 -4.599999999999999E-003   -3.228525494828112E-012
 -4.499999999999999E-003   -3.665342496943121E-012
 -4.399999999999999E-003   -4.036586227107317E-012
 -4.299999999999999E-003   -4.323816814383398E-012
 -4.199999999999999E-003   -4.511153992783863E-012
 -4.099999999999999E-003   -4.585215671372945E-012
 -3.999999999999999E-003   -4.534430611335893E-012
 -3.899999999999999E-003   -4.347767510175646E-012
 -3.799999999999999E-003   -4.013030915822198E-012
 -3.699999999999999E-003   -3.514989593953021E-012
 -3.599999999999999E-003   -2.833682701156724E-012
 -3.499999999999999E-003   -1.943312437873798E-012
 -3.399999999999999E-003   -8.121429359600918E-013
 -3.299999999999999E-003    5.962284997129358E-013
 -3.199999999999999E-003    2.319954926561885E-012
 -3.099999999999999E-003    4.394275098557621E-012
 -2.999999999999999E-003    6.845194620041907E-012
 -2.899999999999999E-003    9.681834372970990E-012
 -2.799999999999999E-003    1.288800686639012E-011
 -2.699999999999999E-003    1.641376950583317E-011
 -2.599999999999999E-003    2.016786187033243E-011
 -2.499999999999999E-003    2.401201534800741E-011
 -2.399999999999999E-003    2.775808170828128E-011
 -2.299999999999999E-003    3.116883859145223E-011
 -2.199999999999999E-003    3.396306817800832E-011
 -2.099999999999999E-003    3.582521630725650E-011
 -1.999999999999999E-003    3.641958234441755E-011
 -1.899999999999999E-003    3.540855574561102E-011
 -1.799999999999999E-003    3.247405486889004E-011
 -1.699999999999999E-003    2.734096216875378E-011
 -1.599999999999999E-003    1.980112075807587E-011
 -1.499999999999999E-003    9.736302122401763E-012
 -1.399999999999999E-003   -2.861456605629057E-012
 -1.299999999999999E-003   -1.787358838730122E-011
 -1.199999999999999E-003   -3.504401703759796E-011
 -1.099999999999999E-003   -5.397428205057813E-011
 -9.999999999999989E-004   -7.412525900102600E-011
 -8.999999999999990E-004   -9.482535812179909E-011
 -7.999999999999990E-004   -1.152848835658719E-010
 -6.999999999999989E-004   -1.346157830627098E-010
 -5.999999999999990E-004   -1.518557962852000E-010
 -4.999999999999989E-004   -1.659960224678626E-010
 -3.999999999999989E-004   -1.760107989505275E-010
 -2.999999999999989E-004   -1.808892647043603E-010
 -1.999999999999989E-004   -1.796677850109367E-010
 -9.999999999999892E-005   -1.714632139976416E-010
  1.084202172485504E-018   -1.555068433302799E-010
  1.000000000000011E-004   -1.311793501509108E-010
  2.000000000000011E-004   -9.804708298613564E-011
  3.000000000000011E-004   -5.589979572806882E-011
  4.000000000000011E-004   -4.789958549318465E-012
  5.000000000000011E-004    5.492696727216012E-011
  6.000000000000011E-004    1.225523048458419E-010
  7.000000000000011E-004    1.970059307065191E-010
  8.000000000000011E-004    2.767925382301714E-010
  9.000000000000012E-004    3.599755180759978E-010
  1.000000000000001E-003    4.441625472545765E-010
  1.100000000000001E-003    5.265069331409694E-010
  1.200000000000001E-003    6.037284617937533E-010
  1.300000000000001E-003    6.721581411217452E-010
  1.400000000000001E-003    7.278092854127677E-010
  1.500000000000001E-003    7.664770138163537E-010
  1.600000000000001E-003    7.838665546869527E-010
  1.700000000000001E-003    7.757491950990194E-010
  1.800000000000001E-003    7.381427126180436E-010
  1.900000000000001E-003    6.675115497508214E-010
  2.000000000000001E-003    5.609800104520210E-010
  2.100000000000001E-003    4.165509203787029E-010
  2.200000000000001E-003    2.333203775536164E-010
  2.300000000000001E-003    1.167918586028457E-011
  2.400000000000001E-003   -2.465084553501737E-010
  2.500000000000001E-003   -5.377594050887154E-010
  2.600000000000001E-003   -8.568660613955385E-010
  2.700000000000001E-003   -1.196840075949581E-009
  2.800000000000001E-003   -1.548910257944878E-009
  2.900000000000001E-003   -1.902579399512407E-009
  3.000000000000001E-003   -2.245742442776868E-009
  3.100000000000001E-003   -2.564867838640205E-009
  3.200000000000001E-003   -2.845242154786703E-009
  3.300000000000001E-003   -3.071274185676500E-009
  3.400000000000001E-003   -3.226859327110474E-009
  3.500000000000001E-003   -3.295799073514578E-009
  3.600000000000001E-003   -3.262270079857651E-009
  3.700000000000001E-003   -3.111341450602499E-009
  3.800000000000001E-003   -2.829531018689732E-009
  3.900000000000001E-003   -2.405394850808427E-009
  4.000000000000001E-003   -1.830141640640930E-009
  4.100000000000001E-003   -1.098261938165937E-009
  4.200000000000001E-003   -2.081572638315612E-010
  4.300000000000001E-003    8.372423518840061E-010
  4.400000000000001E-003    2.029894709261093E-009
  4.500000000000001E-003    3.356115477435422E-009
  4.600000000000002E-003    4.796127080566122E-009
  4.700000000000001E-003    6.323713380116970E-009
  4.800000000000001E-003    7.906011294015592E-009
  4.900000000000002E-003    9.503469073559459E-009
  5.000000000000001E-003    1.107000515981058E-008
  5.100000000000001E-003    1.255339153952864E-008
  5.200000000000001E-003    1.389589610640513E-008
  5.300000000000002E-003    1.503520409685829E-008
  5.400000000000001E-003    1.590562984035702E-008
  5.500000000000001E-003    1.643963802190431E-008
  5.600000000000002E-003    1.656966479194016E-008
  5.700000000000001E-003    1.623024299873915E-008
  5.800000000000001E-003    1.536039781253162E-008
  5.900000000000002E-003    1.390630230176210E-008
  6.000000000000001E-003    1.182414360003475E-008
  6.100000000000001E-003    9.083164223570772E-009
  6.200000000000002E-003    5.668832598830414E-009
  6.300000000000002E-003    1.586079764160716E-009
  6.400000000000001E-003   -3.137430573903093E-009
  6.500000000000001E-003   -8.448073698581730E-009
  6.600000000000002E-003   -1.426310296241485E-008
  6.700000000000001E-003   -2.046761816774849E-008
  6.800000000000001E-003   -2.691169089483781E-008
  6.900000000000002E-003   -3.340767270356690E-008
  7.000000000000001E-003   -3.972771792301580E-008
  7.100000000000001E-003   -4.560153125831545E-008
  7.200000000000002E-003   -5.071434884576287E-008
  7.300000000000002E-003   -5.470516774797842E-008
  7.400000000000001E-003   -5.716519387572954E-008
  7.500000000000001E-003   -5.763657169954367E-008
  7.600000000000002E-003   -5.561132428157525E-008
  7.700000000000001E-003   -5.053056399449291E-008
  7.800000000000001E-003   -4.178395830278050E-008
  7.900000000000001E-003   -2.870946878800393E-008
  8.000000000000002E-003   -1.059336886996120E-008
  8.100000000000001E-003    1.332942648097749E-008
  8.200000000000001E-003    4.387470689091424E-008
  8.300000000000002E-003    8.190801340569788E-008
  8.400000000000001E-003    1.283432538552071E-007
  8.500000000000002E-003    1.841410679821914E-007
  8.600000000000002E-003    2.503067992514723E-007
  8.700000000000001E-003    3.278881901379175E-007
  8.800000000000002E-003    4.179725732497936E-007
  8.900000000000002E-003    5.216842498195110E-007
  9.000000000000001E-003    6.401811643063262E-007
  9.100000000000002E-003    7.746520613785125E-007
  9.200000000000002E-003    9.263127566156998E-007
  9.300000000000001E-003    1.096403861681987E-006
  9.400000000000002E-003    1.286186804546661E-006
  9.500000000000001E-003    1.496942187323129E-006
  9.600000000000001E-003    1.729966366650229E-006
  9.700000000000002E-003    1.986570832352268E-006
  9.800000000000001E-003    2.268079655147533E-006
  9.900000000000001E-003    2.575828998236702E-006
  1.000000000000000E-002    2.911167619555788E-006
  1.010000000000000E-002    3.275456586636416E-006
  1.020000000000000E-002    3.670070657444951E-006
  1.030000000000000E-002    4.096400141620121E-006
  1.040000000000000E-002    4.555854366494256E-006
  1.050000000000000E-002    5.049864834273111E-006
  1.060000000000000E-002    5.579888364337160E-006
  1.070000000000000E-002    6.147413496514478E-006
  1.080000000000000E-002    6.753967336542149E-006
  1.090000000000000E-002    7.401120615916992E-006
  1.100000000000000E-002    8.090497940778346E-006
  1.110000000000000E-002    8.823784768886629E-006
  1.120000000000000E-002    9.602739048221430E-006
  1.130000000000000E-002    1.042920186792392E-005
  1.140000000000000E-002    1.130511007935830E-005
  1.150000000000000E-002    1.223251106243144E-005
  1.160000000000000E-002    1.321357405514214E-005
  1.170000000000000E-002    1.425060909729682E-005
  1.180000000000000E-002    1.534608216261898E-005
  1.190000000000000E-002    1.650263395157461E-005
  1.200000000000000E-002    1.772309508916618E-005
  1.210000000000000E-002    1.901050728620738E-005
  1.220000000000000E-002    2.036813941374285E-005
  1.230000000000000E-002    2.179950706228767E-005
  1.240000000000000E-002    2.330839428120325E-005
  1.250000000000000E-002    2.489886327397987E-005
  1.260000000000000E-002    2.657527497392377E-005
  1.270000000000000E-002    2.834230730683130E-005
  1.280000000000000E-002    3.020496683024766E-005
  1.290000000000000E-002    3.216860703437894E-005
  1.300000000000000E-002    3.423893437358957E-005
  1.310000000000000E-002    3.642202108303817E-005
  1.320000000000000E-002    3.872432648059162E-005
  1.330000000000000E-002    4.115269136879578E-005
  1.340000000000000E-002    4.371435536318337E-005
  1.350000000000000E-002    4.641697327917921E-005
  1.360000000000000E-002    4.926861174759432E-005
  1.370000000000000E-002    5.227776026819253E-005
  1.380000000000000E-002    5.545335474549959E-005
  1.390000000000000E-002    5.880477197622436E-005
  1.400000000000000E-002    6.234184625921607E-005
  1.410000000000000E-002    6.607489339505118E-005
  1.420000000000000E-002    7.001470983556603E-005
  1.430000000000000E-002    7.417259481013786E-005
  1.440000000000000E-002    7.856037470451062E-005
  1.450000000000000E-002    8.319040683214812E-005
  1.460000000000000E-002    8.807560279034351E-005
  1.470000000000000E-002    9.322945853584375E-005
  1.480000000000000E-002    9.866605656187447E-005
  1.490000000000000E-002    1.044001095304156E-004
  1.500000000000000E-002    1.104469706151389E-004
  1.510000000000000E-002    1.168226697970064E-004
  1.520000000000000E-002    1.235439134687404E-004
  1.530000000000000E-002    1.306281404935100E-004
  1.540000000000000E-002    1.380935287138137E-004
  1.550000000000000E-002    1.459590294764401E-004
  1.560000000000000E-002    1.542443875576036E-004
  1.570000000000000E-002    1.629702004063618E-004
  1.580000000000000E-002    1.721579069253753E-004
  1.590000000000000E-002    1.818298705085505E-004
  1.600000000000000E-002    1.920094012319441E-004
  1.610000000000000E-002    2.027207519462527E-004
  1.620000000000000E-002    2.139892022631984E-004
  1.630000000000000E-002    2.258411257855268E-004
  1.640000000000000E-002    2.383039550403353E-004
  1.650000000000000E-002    2.514063068072370E-004
  1.660000000000000E-002    2.651779751766209E-004
  1.670000000000000E-002    2.796499693031844E-004
  1.680000000000000E-002    2.948546589804225E-004
  1.690000000000000E-002    3.108257018045494E-004
  1.700000000000000E-002    3.275981551904853E-004
  1.710000000000000E-002    3.452085154120848E-004
  1.720000000000000E-002    3.636947435849587E-004
  1.730000000000000E-002    3.830963584153466E-004
  1.740000000000000E-002    4.034543969138249E-004
  1.750000000000000E-002    4.248115942245816E-004
  1.760000000000000E-002    4.472123230768018E-004
  1.770000000000000E-002    4.707026480896432E-004
  1.780000000000000E-002    4.953303824758665E-004
  1.790000000000000E-002    5.211451620660010E-004
  1.800000000000000E-002    5.481985020612835E-004
  1.810000000000000E-002    5.765438238326190E-004
  1.820000000000000E-002    6.062364985376866E-004
  1.830000000000000E-002    6.373338938004506E-004
  1.840000000000000E-002    6.698954887510615E-004
  1.850000000000000E-002    7.039828804101303E-004
  1.860000000000000E-002    7.396598670357582E-004
  1.870000000000000E-002    7.769924731742729E-004