 -4.000000000000000E-002    0.000000000000000E+000
 -3.990000000000000E-002    0.000000000000000E+000
 -3.980000000000000E-002    0.000000000000000E+000
 -3.970000000000000E-002    0.000000000000000E+000
 -3.960000000000000E-002    0.000000000000000E+000
 -3.950000000000000E-002    0.000000000000000E+000
 -3.940000000000000E-002    0.000000000000000E+000
 -3.930000000000000E-002    0.000000000000000E+000
 -3.920000000000000E-002    0.000000000000000E+000
 -3.910000000000000E-002    0.000000000000000E+000
 -3.900000000000000E-002    0.000000000000000E+000
 -3.890000000000000E-002    0.000000000000000E+000
 -3.880000000000000E-002    0.000000000000000E+000
 -3.870000000000000E-002    0.000000000000000E+000
 -3.860000000000000E-002    0.000000000000000E+000
 -3.850000000000000E-002    0.000000000000000E+000
 -3.840000000000000E-002    0.000000000000000E+000
 -3.830000000000000E-002    0.000000000000000E+000
 -3.820000000000000E-002    0.000000000000000E+000
 -3.810000000000000E-002    0.000000000000000E+000
 -3.800000000000000E-002    0.000000000000000E+000
 -3.790000000000000E-002    0.000000000000000E+000
 -3.780000000000000E-002    0.000000000000000E+000
 -3.770000000000000E-002    0.000000000000000E+000
 -3.760000000000000E-002    0.000000000000000E+000
 -3.750000000000000E-002    0.000000000000000E+000
 -3.740000000000000E-002    0.000000000000000E+000
 -3.730000000000000E-002    0.000000000000000E+000
 -3.720000000000000E-002    0.000000000000000E+000
 -3.710000000000000E-002    0.000000000000000E+000
 -3.700000000000000E-002    0.000000000000000E+000
 -3.690000000000000E-002    0.000000000000000E+000
 -3.680000000000000E-002    0.000000000000000E+000
 -3.670000000000000E-002    0.000000000000000E+000
 -3.660000000000000E-002    0.000000000000000E+000
 -3.650000000000000E-002    0.000000000000000E+000
 -3.640000000000000E-002    0.000000000000000E+000
 -3.630000000000000E-002    0.000000000000000E+000
 -3.620000000000000E-002    0.000000000000000E+000
 -3.610000000000000E-002    0.000000000000000E+000
 -3.600000000000000E-002    0.000000000000000E+000
 -3.590000000000000E-002    0.000000000000000E+000
 -3.580000000000000E-002    0.000000000000000E+000
 -3.570000000000000E-002    0.000000000000000E+000
 -3.560000000000000E-002    0.000000000000000E+000
 -3.550000000000000E-002    0.000000000000000E+000
 -3.540000000000000E-002    0.000000000000000E+000
 -3.530000000000000E-002    0.000000000000000E+000
 -3.520000000000000E-002    0.000000000000000E+000
 -3.510000000000000E-002    0.000000000000000E+000
 -3.500000000000000E-002    0.000000000000000E+000
 -3.490000000000000E-002    0.000000000000000E+000
 -3.480000000000000E-002    0.000000000000000E+000
 -3.470000000000000E-002    0.000000000000000E+000
 -3.460000000000000E-002    0.000000000000000E+000
 -3.450000000000000E-002    0.000000000000000E+000
 -3.440000000000000E-002    0.000000000000000E+000
 -3.430000000000000E-002    0.000000000000000E+000
 -3.420000000000000E-002    0.000000000000000E+000
 -3.410000000000000E-002    0.000000000000000E+000
 -3.400000000000000E-002    0.000000000000000E+000
 -3.390000000000000E-002    0.000000000000000E+000
 -3.380000000000000E-002    0.000000000000000E+000
 -3.370000000000000E-002    0.000000000000000E+000
 -3.360000000000000E-002    0.000000000000000E+000
 -3.350000000000000E-002    0.000000000000000E+000
 -3.340000000000000E-002    0.000000000000000E+000
 -3.330000000000000E-002    0.000000000000000E+000
 -3.320000000000000E-002    0.000000000000000E+000
 -3.310000000000000E-002    0.000000000000000E+000
 -3.300000000000000E-002    0.000000000000000E+000
 -3.290000000000000E-002    0.000000000000000E+000
 -3.280000000000000E-002    0.000000000000000E+000
 -3.270000000000000E-002    0.000000000000000E+000
 -3.260000000000000E-002    0.000000000000000E+000
 -3.250000000000000E-002    0.000000000000000E+000
 -3.240000000000000E-002    0.000000000000000E+000
 -3.230000000000000E-002    0.000000000000000E+000
 -3.220000000000000E-002    0.000000000000000E+000
 -3.210000000000000E-002    0.000000000000000E+000
 -3.200000000000000E-002    0.000000000000000E+000
 -3.190000000000000E-002    0.000000000000000E+000
 -3.180000000000000E-002    0.000000000000000E+000
 -3.170000000000000E-002    0.000000000000000E+000
 -3.160000000000000E-002    0.000000000000000E+000
 -3.150000000000000E-002    0.000000000000000E+000
 -3.140000000000000E-002    0.000000000000000E+000
 -3.130000000000000E-002    0.000000000000000E+000
 -3.120000000000000E-002    0.000000000000000E+000
 -3.110000000000000E-002    0.000000000000000E+000
 -3.100000000000000E-002    0.000000000000000E+000
 -3.090000000000000E-002    0.000000000000000E+000
 -3.080000000000000E-002    0.000000000000000E+000
 -3.070000000000000E-002    0.000000000000000E+000
 -3.060000000000000E-002    0.000000000000000E+000
 -3.050000000000000E-002    0.000000000000000E+000
 -3.040000000000000E-002    0.000000000000000E+000
 -3.030000000000000E-002    0.000000000000000E+000
 -3.020000000000000E-002    0.000000000000000E+000
 -3.010000000000000E-002    0.000000000000000E+000
 -3.000000000000000E-002    0.000000000000000E+000
 -2.990000000000000E-002    0.000000000000000E+000
 -2.980000000000000E-002    0.000000000000000E+000
 -2.970000000000000E-002    0.000000000000000E+000
 -2.960000000000000E-002    0.000000000000000E+000
 -2.950000000000000E-002    0.000000000000000E+000
 -2.940000000000000E-002    0.000000000000000E+000
 -2.930000000000000E-002    0.000000000000000E+000
 -2.920000000000000E-002    0.000000000000000E+000
 -2.910000000000000E-002    0.000000000000000E+000
 -2.900000000000000E-002    0.000000000000000E+000
 -2.890000000000000E-002    0.000000000000000E+000
 -2.880000000000000E-002    0.000000000000000E+000
 -2.870000000000000E-002    0.000000000000000E+000
 -2.860000000000000E-002    0.000000000000000E+000
 -2.850000000000000E-002    0.000000000000000E+000
 -2.840000000000000E-002    0.000000000000000E+000
 -2.830000000000000E-002    0.000000000000000E+000
 -2.820000000000000E-002    0.000000000000000E+000
 -2.810000000000000E-002    0.000000000000000E+000
 -2.800000000000000E-002    0.000000000000000E+000
 -2.790000000000000E-002    0.000000000000000E+000
 -2.780000000000000E-002    0.000000000000000E+000
 -2.770000000000000E-002    0.000000000000000E+000
 -2.760000000000000E-002    0.000000000000000E+000
 -2.750000000000000E-002    0.000000000000000E+000
 -2.740000000000000E-002    0.000000000000000E+000
 -2.730000000000000E-002    0.000000000000000E+000
 -2.720000000000000E-002    0.000000000000000E+000
 -2.710000000000000E-002    0.000000000000000E+000
 -2.700000000000000E-002    0.000000000000000E+000
 -2.690000000000000E-002    0.000000000000000E+000
 -2.680000000000000E-002    0.000000000000000E+000
 -2.670000000000000E-002    0.000000000000000E+000
 -2.660000000000000E-002    0.000000000000000E+000
 -2.650000000000000E-002    0.000000000000000E+000
 -2.640000000000000E-002    0.000000000000000E+000
 -2.630000000000000E-002    0.000000000000000E+000
 -2.620000000000000E-002    0.000000000000000E+000
 -2.610000000000000E-002    0.000000000000000E+000
 -2.600000000000000E-002    0.000000000000000E+000
 -2.590000000000000E-002    0.000000000000000E+000
 -2.580000000000000E-002    0.000000000000000E+000
 -2.570000000000000E-002    0.000000000000000E+000
 -2.560000000000000E-002    0.000000000000000E+000
 -2.550000000000000E-002    0.000000000000000E+000
 -2.540000000000000E-002    0.000000000000000E+000
 -2.530000000000000E-002    0.000000000000000E+000
 -2.520000000000000E-002    0.000000000000000E+000
 -2.510000000000000E-002    0.000000000000000E+000
 -2.500000000000000E-002    0.000000000000000E+000
 -2.490000000000000E-002    0.000000000000000E+000
 -2.480000000000000E-002    0.000000000000000E+000
 -2.470000000000000E-002    0.000000000000000E+000
 -2.460000000000000E-002    0.000000000000000E+000
 -2.450000000000000E-002    0.000000000000000E+000
 -2.440000000000000E-002    0.000000000000000E+000
 -2.430000000000000E-002    0.000000000000000E+000
 -2.420000000000000E-002    0.000000000000000E+000
 -2.410000000000000E-002    0.000000000000000E+000
 -2.400000000000000E-002    0.000000000000000E+000
 -2.390000000000000E-002    0.000000000000000E+000
 -2.380000000000000E-002    0.000000000000000E+000
 -2.370000000000000E-002    0.000000000000000E+000
 -2.360000000000000E-002    0.000000000000000E+000
 -2.350000000000000E-002    0.000000000000000E+000
 -2.340000000000000E-002    0.000000000000000E+000
 -2.330000000000000E-002    0.000000000000000E+000
 -2.320000000000000E-002    0.000000000000000E+000
 -2.310000000000000E-002    0.000000000000000E+000
 -2.300000000000000E-002    0.000000000000000E+000
 -2.290000000000000E-002    0.000000000000000E+000
 -2.280000000000000E-002    0.000000000000000E+000
 -2.270000000000000E-002    0.000000000000000E+000
 -2.260000000000000E-002    0.000000000000000E+000
 -2.250000000000000E-002    0.000000000000000E+000
 -2.240000000000000E-002    0.000000000000000E+000
 -2.230000000000000E-002    0.000000000000000E+000
 -2.220000000000000E-002    0.000000000000000E+000
 -2.210000000000000E-002    0.000000000000000E+000
 -2.200000000000000E-002    0.000000000000000E+000
 -2.190000000000000E-002    0.000000000000000E+000
 -2.180000000000000E-002    0.000000000000000E+000
 -2.170000000000000E-002    0.000000000000000E+000
 -2.160000000000000E-002    0.000000000000000E+000
 -2.150000000000000E-002    0.000000000000000E+000
 -2.140000000000000E-002    0.000000000000000E+000
 -2.130000000000000E-002    0.000000000000000E+000
 -2.120000000000000E-002    0.000000000000000E+000
 -2.110000000000000E-002    0.000000000000000E+000
 -2.100000000000000E-002    0.000000000000000E+000
 -2.090000000000000E-002    0.000000000000000E+000
 -2.080000000000000E-002    0.000000000000000E+000
 -2.070000000000000E-002    0.000000000000000E+000
 -2.060000000000000E-002    0.000000000000000E+000
 -2.050000000000000E-002    0.000000000000000E+000
 -2.040000000000000E-002    0.000000000000000E+000
 -2.030000000000000E-002    0.000000000000000E+000
 -2.020000000000000E-002    0.000000000000000E+000
 -2.010000000000000E-002    0.000000000000000E+000
 -2.000000000000000E-002    0.000000000000000E+000
 -1.990000000000000E-002    0.000000000000000E+000
 -1.980000000000000E-002    0.000000000000000E+000
 -1.970000000000000E-002    0.000000000000000E+000
 -1.960000000000000E-002    0.000000000000000E+000
 -1.950000000000000E-002    0.000000000000000E+000
 -1.940000000000000E-002    0.000000000000000E+000
 -1.930000000000000E-002    0.000000000000000E+000
 -1.920000000000000E-002    0.000000000000000E+000
 -1.910000000000000E-002    0.000000000000000E+000
 -1.900000000000000E-002    0.000000000000000E+000
 -1.890000000000000E-002    0.000000000000000E+000
 -1.880000000000000E-002    0.000000000000000E+000
 -1.870000000000000E-002    0.000000000000000E+000
 -1.860000000000000E-002    0.000000000000000E+000
 -1.850000000000000E-002    0.000000000000000E+000
 -1.840000000000000E-002    0.000000000000000E+000
 -1.830000000000000E-002    0.000000000000000E+000
 -1.820000000000000E-002    0.000000000000000E+000
 -1.810000000000000E-002    0.000000000000000E+000
 -1.800000000000000E-002    0.000000000000000E+000
 -1.790000000000000E-002    0.000000000000000E+000
 -1.780000000000000E-002    0.000000000000000E+000
 -1.770000000000000E-002    0.000000000000000E+000
 -1.760000000000000E-002    0.000000000000000E+000
 -1.750000000000000E-002    0.000000000000000E+000
 -1.740000000000000E-002    0.000000000000000E+000
 -1.730000000000000E-002    0.000000000000000E+000
 -1.720000000000000E-002    0.000000000000000E+000
 -1.710000000000000E-002    0.000000000000000E+000
 -1.700000000000000E-002    0.000000000000000E+000
 -1.690000000000000E-002    0.000000000000000E+000
 -1.680000000000000E-002    0.000000000000000E+000
 -1.670000000000000E-002    0.000000000000000E+000
 -1.660000000000000E-002    0.000000000000000E+000
 -1.650000000000000E-002    0.000000000000000E+000
 -1.640000000000000E-002    0.000000000000000E+000
 -1.630000000000000E-002    0.000000000000000E+000
 -1.620000000000000E-002    0.000000000000000E+000
 -1.610000000000000E-002    0.000000000000000E+000
 -1.600000000000000E-002    0.000000000000000E+000
 -1.590000000000000E-002    0.000000000000000E+000
 -1.580000000000000E-002    0.000000000000000E+000
 -1.570000000000000E-002    0.000000000000000E+000
 -1.560000000000000E-002    0.000000000000000E+000
 -1.550000000000000E-002    0.000000000000000E+000
 -1.540000000000000E-002    0.000000000000000E+000
 -1.530000000000000E-002    0.000000000000000E+000
 -1.520000000000000E-002    0.000000000000000E+000
 -1.510000000000000E-002    0.000000000000000E+000
 -1.500000000000000E-002    0.000000000000000E+000
 -1.490000000000000E-002    0.000000000000000E+000
 -1.480000000000000E-002    0.000000000000000E+000
 -1.470000000000000E-002    0.000000000000000E+000
 -1.460000000000000E-002    0.000000000000000E+000
 -1.450000000000000E-002    0.000000000000000E+000
 -1.440000000000000E-002    0.000000000000000E+000
 -1.430000000000000E-002    0.000000000000000E+000
 -1.420000000000000E-002    0.000000000000000E+000
 -1.410000000000000E-002    0.000000000000000E+000
 -1.400000000000000E-002    0.000000000000000E+000
 -1.390000000000000E-002    0.000000000000000E+000
 -1.380000000000000E-002    0.000000000000000E+000
 -1.370000000000000E-002    0.000000000000000E+000
 -1.360000000000000E-002    0.000000000000000E+000
 -1.350000000000000E-002    0.000000000000000E+000
 -1.340000000000000E-002    0.000000000000000E+000
 -1.330000000000000E-002    0.000000000000000E+000
 -1.320000000000000E-002    0.000000000000000E+000
 -1.310000000000000E-002    0.000000000000000E+000
 -1.300000000000000E-002    0.000000000000000E+000
 -1.290000000000000E-002    0.000000000000000E+000
 -1.280000000000000E-002    0.000000000000000E+000
 -1.270000000000000E-002    0.000000000000000E+000
 -1.260000000000000E-002    0.000000000000000E+000
 -1.250000000000000E-002    0.000000000000000E+000
 -1.240000000000000E-002    0.000000000000000E+000
 -1.230000000000000E-002    0.000000000000000E+000
 -1.220000000000000E-002    0.000000000000000E+000
 -1.210000000000000E-002    0.000000000000000E+000
 -1.200000000000000E-002    0.000000000000000E+000
 -1.190000000000000E-002    0.000000000000000E+000
 -1.180000000000000E-002    0.000000000000000E+000
 -1.170000000000000E-002    0.000000000000000E+000
 -1.160000000000000E-002    0.000000000000000E+000
 -1.150000000000000E-002    0.000000000000000E+000
 -1.140000000000000E-002    0.000000000000000E+000
 -1.130000000000000E-002    0.000000000000000E+000
 -1.120000000000000E-002    0.000000000000000E+000
 -1.110000000000000E-002    0.000000000000000E+000
 -1.100000000000000E-002    0.000000000000000E+000
 -1.090000000000000E-002    0.000000000000000E+000
 -1.080000000000000E-002    0.000000000000000E+000
 -1.070000000000000E-002    0.000000000000000E+000
 -1.060000000000000E-002    0.000000000000000E+000
 -1.050000000000000E-002    0.000000000000000E+000
 -1.040000000000000E-002    0.000000000000000E+000
 -1.030000000000000E-002    0.000000000000000E+000
 -1.020000000000000E-002    0.000000000000000E+000
 -1.010000000000000E-002    0.000000000000000E+000
 -1.000000000000000E-002    0.000000000000000E+000
 -9.899999999999999E-003    0.000000000000000E+000
 -9.800000000000000E-003    0.000000000000000E+000
 -9.699999999999999E-003    0.000000000000000E+000
 -9.599999999999999E-003    0.000000000000000E+000
 -9.500000000000000E-003    0.000000000000000E+000
 -9.399999999999999E-003    0.000000000000000E+000
 -9.299999999999999E-003    0.000000000000000E+000
 -9.200000000000000E-003    0.000000000000000E+000
 -9.099999999999999E-003    0.000000000000000E+000
 -8.999999999999999E-003    0.000000000000000E+000
 -8.900000000000000E-003    0.000000000000000E+000
 -8.799999999999999E-003    0.000000000000000E+000
 -8.699999999999999E-003    0.000000000000000E+000
 -8.600000000000000E-003    0.000000000000000E+000
 -8.499999999999999E-003    0.000000000000000E+000
 -8.399999999999999E-003    0.000000000000000E+000
 -8.300000000000000E-003    0.000000000000000E+000
 -8.199999999999999E-003    0.000000000000000E+000
 -8.100000000000000E-003    0.000000000000000E+000
 -8.000000000000000E-003    0.000000000000000E+000
 -7.899999999999999E-003    0.000000000000000E+000
 -7.800000000000000E-003    0.000000000000000E+000
 -7.699999999999999E-003    0.000000000000000E+000
 -7.599999999999999E-003    0.000000000000000E+000
 -7.499999999999999E-003    0.000000000000000E+000
 -7.399999999999999E-003    0.000000000000000E+000
 -7.299999999999999E-003    0.000000000000000E+000
 -7.199999999999999E-003    0.000000000000000E+000
 -7.100000000000000E-003    0.000000000000000E+000
 -6.999999999999999E-003    0.000000000000000E+000
 -6.899999999999999E-003    0.000000000000000E+000
 -6.800000000000000E-003    0.000000000000000E+000
 -6.699999999999999E-003    0.000000000000000E+000
 -6.599999999999999E-003    0.000000000000000E+000
 -6.499999999999999E-003    0.000000000000000E+000
 -6.399999999999999E-003    0.000000000000000E+000
 -6.299999999999999E-003    0.000000000000000E+000
 -6.199999999999999E-003    0.000000000000000E+000
 -6.100000000000000E-003    0.000000000000000E+000
 -5.999999999999999E-003    0.000000000000000E+000
 -5.899999999999999E-003    0.000000000000000E+000
 -5.800000000000000E-003    0.000000000000000E+000
 -5.699999999999999E-003    0.000000000000000E+000
 -5.599999999999999E-003    0.000000000000000E+000
 -5.499999999999999E-003    0.000000000000000E+000
 -5.399999999999999E-003    0.000000000000000E+000
 -5.299999999999999E-003    0.000000000000000E+000
 -5.199999999999999E-003    0.000000000000000E+000
 -5.099999999999999E-003    0.000000000000000E+000
 -4.999999999999999E-003    0.000000000000000E+000
 -4.899999999999999E-003    0.000000000000000E+000
 -4.799999999999999E-003    0.000000000000000E+000
 -4.699999999999999E-003    0.000000000000000E+000
 -4.599999999999999E-003    0.000000000000000E+000
 -4.499999999999999E-003    0.000000000000000E+000
 -4.399999999999999E-003    0.000000000000000E+000
 -4.299999999999999E-003    0.000000000000000E+000
 -4.199999999999999E-003    0.000000000000000E+000
 -4.099999999999999E-003    0.000000000000000E+000
 -3.999999999999999E-003    0.000000000000000E+000
 -3.899999999999999E-003    0.000000000000000E+000
 -3.799999999999999E-003    0.000000000000000E+000
 -3.699999999999999E-003    0.000000000000000E+000
 -3.599999999999999E-003    0.000000000000000E+000
 -3.499999999999999E-003    0.000000000000000E+000
 -3.399999999999999E-003    0.000000000000000E+000
 -3.299999999999999E-003    0.000000000000000E+000
 -3.199999999999999E-003    0.000000000000000E+000
 -3.099999999999999E-003    0.000000000000000E+000
 -2.999999999999999E-003    0.000000000000000E+000
 -2.899999999999999E-003    0.000000000000000E+000
 -2.799999999999999E-003    0.000000000000000E+000
 -2.699999999999999E-003    0.000000000000000E+000
 -2.599999999999999E-003    0.000000000000000E+000
 -2.499999999999999E-003    0.000000000000000E+000
 -2.399999999999999E-003    0.000000000000000E+000
 -2.299999999999999E-003    0.000000000000000E+000
 -2.199999999999999E-003    0.000000000000000E+000
 -2.099999999999999E-003    0.000000000000000E+000
 -1.999999999999999E-003    0.000000000000000E+000
 -1.899999999999999E-003    0.000000000000000E+000
 -1.799999999999999E-003    0.000000000000000E+000
 -1.699999999999999E-003    0.000000000000000E+000
 -1.599999999999999E-003    0.000000000000000E+000
 -1.499999999999999E-003    0.000000000000000E+000
 -1.399999999999999E-003    0.000000000000000E+000
 -1.299999999999999E-003    0.000000000000000E+000
 -1.199999999999999E-003    0.000000000000000E+000
 -1.099999999999999E-003    0.000000000000000E+000
 -9.999999999999989E-004    0.000000000000000E+000
 -8.999999999999990E-004    0.000000000000000E+000
 -7.999999999999990E-004    0.000000000000000E+000
 -6.999999999999989E-004    0.000000000000000E+000
 -5.999999999999990E-004    0.000000000000000E+000
 -4.999999999999989E-004    0.000000000000000E+000
 -3.999999999999989E-004    0.000000000000000E+000
 -2.999999999999989E-004    0.000000000000000E+000
 -1.999999999999989E-004    0.000000000000000E+000
 -9.999999999999892E-005    0.000000000000000E+000
  1.084202172485504E-018    0.000000000000000E+000
  1.000000000000011E-004    0.000000000000000E+000
  2.000000000000011E-004    0.000000000000000E+000
  3.000000000000011E-004    0.000000000000000E+000
  4.000000000000011E-004    0.000000000000000E+000
  5.000000000000011E-004    0.000000000000000E+000
  6.000000000000011E-004   -5.729748743698578E-047
  7.000000000000011E-004   -1.145949748739716E-046
  8.000000000000011E-004   -1.718924623109574E-046
  9.000000000000012E-004   -2.291899497479431E-046
  1.000000000000001E-003   -2.291899497479431E-046
  1.100000000000001E-003   -1.718924623109574E-046
  1.200000000000001E-003   -5.729748743698578E-047
  1.300000000000001E-003    2.885714523842133E-046
  1.400000000000001E-003    5.177614021321564E-046
  1.500000000000001E-003    8.042488393170853E-046
  1.600000000000001E-003    1.148033763939000E-045
  1.700000000000001E-003    1.260544723613687E-045
  1.800000000000001E-003    1.195259376066464E-045
  1.900000000000001E-003    4.371354500786927E-046
  2.000000000000001E-003    4.409490781409955E-046
  2.100000000000001E-003    4.368029414439778E-047
  2.200000000000001E-003   -5.233969369638729E-046
  2.300000000000001E-003   -2.072513112961773E-045
  2.400000000000001E-003   -3.260767945319134E-045
  2.500000000000001E-003   -4.907396475523015E-045
  2.600000000000001E-003   -6.668613778951501E-045
  2.700000000000001E-003   -7.858585820873148E-045
  2.800000000000001E-003   -8.481480631686524E-045
  2.900000000000001E-003   -7.444484121339697E-045
  3.000000000000001E-003   -3.886056164727962E-045
  3.100000000000001E-003    1.198501502302728E-045
  3.200000000000001E-003    7.460129024284376E-045
  3.300000000000001E-003    1.595523305091285E-044
  3.400000000000001E-003    2.466097690218814E-044
  3.500000000000001E-003    3.267559318293779E-044
  3.600000000000001E-003    3.835481809153519E-044
  3.700000000000001E-003    4.021738280111159E-044
  3.800000000000001E-003    3.528730819891659E-044
  3.900000000000001E-003    2.261672058139656E-044
  4.000000000000001E-003    1.925874946645787E-045
  4.100000000000001E-003   -2.766028752817725E-044
  4.200000000000001E-003   -6.402584794769499E-044
  4.300000000000001E-003   -1.037044699981335E-043
  4.400000000000001E-003   -1.415190165900648E-043
  4.500000000000001E-003   -1.716747183507945E-043
  4.600000000000002E-003   -1.859647193119891E-043
  4.700000000000001E-003   -1.754745421993584E-043
  4.800000000000001E-003   -1.350857686848673E-043
  4.900000000000002E-003   -5.805384303678419E-044
  5.000000000000001E-003    5.455170305602605E-044
  5.100000000000001E-003    2.002674677008134E-043
  5.200000000000001E-003    3.681025589629214E-043
  5.300000000000002E-003    5.398587121633922E-043
  5.400000000000001E-003    6.923676785072318E-043
  5.500000000000001E-003    7.953677047929940E-043
  5.600000000000002E-003    8.165295383012835E-043
  5.700000000000001E-003    7.238787620544732E-043
  5.800000000000001E-003    4.926718593839437E-043
  5.900000000000002E-003    1.069322466409322E-043
  6.000000000000001E-003   -4.305555490146397E-043
  6.100000000000001E-003   -1.095308330919896E-042
  6.200000000000002E-003   -1.836832451399831E-042
  6.300000000000002E-003   -2.573664959298669E-042
  6.400000000000001E-003   -3.199680951051533E-042
  6.500000000000001E-003   -3.588606097746076E-042
  6.600000000000002E-003   -3.603380522026102E-042
  6.700000000000001E-003   -3.111740251095007E-042
  6.800000000000001E-003   -2.008727365001444E-042
  6.900000000000002E-003   -2.377472219893947E-043
  7.000000000000001E-003    2.181889119149232E-042
  7.100000000000001E-003    5.134733721497089E-042
  7.200000000000002E-003    8.392875740250900E-042
  7.300000000000002E-003    1.160756914428158E-041
  7.400000000000001E-003    1.431698631405549E-041
  7.500000000000001E-003    1.597351908431962E-041
  7.600000000000002E-003    1.598780566374525E-041
  7.700000000000001E-003    1.379593043164501E-041
  7.800000000000001E-003    8.949453751124631E-042
  7.900000000000001E-003    1.210359740119024E-042
  8.000000000000002E-003   -9.343109589467324E-042
  8.100000000000001E-003   -2.221774608096406E-041
  8.200000000000001E-003   -3.644241720999261E-041
  8.300000000000002E-003   -5.053197711950857E-041
  8.400000000000001E-003   -6.252811695103896E-041
  8.500000000000002E-003   -7.009949114009796E-041
  8.600000000000002E-003   -7.073821517529021E-041
  8.700000000000001E-003   -6.203765285293704E-041
  8.800000000000002E-003   -4.205374448062024E-041
  8.900000000000002E-003   -9.710138852653430E-042
  9.000000000000001E-003    3.477163643682749E-041
  9.100000000000002E-003    8.947751078434226E-041
  9.200000000000002E-003    1.505099275311608E-040
  9.300000000000001E-003    2.118562689930830E-040
  9.400000000000002E-003    2.654930127326939E-040
  9.500000000000001E-003    3.017933513654523E-040
  9.600000000000001E-003    3.102647600748680E-040
  9.700000000000002E-003    2.806396001878957E-040
  9.800000000000001E-003    2.042778574640511E-040
  9.900000000000001E-003    7.581634639028540E-041
  1.000000000000000E-002   -1.050798752563211E-040
  1.010000000000000E-002   -3.320493569693170E-040
  1.020000000000000E-002   -5.906774733246995E-040
  1.030000000000000E-002   -8.577406686786311E-040
  1.040000000000000E-002   -1.101317383985641E-039
  1.050000000000000E-002   -1.282049520961294E-039
  1.060000000000000E-002   -1.355762975345353E-039
  1.070000000000000E-002   -1.277561520450001E-039
  1.080000000000000E-002   -1.007360923973243E-039
  1.090000000000000E-002   -5.166478992721116E-040
  1.100000000000000E-002    2.040050487369707E-040
  1.110000000000000E-002    1.137355767857642E-039
  1.120000000000000E-002    2.232814210964273E-039
  1.130000000000000E-002    3.401822856943727E-039
  1.140000000000000E-002    4.516624843368531E-039
  1.150000000000000E-002    5.413730269986122E-039
  1.160000000000000E-002    5.903258861024121E-039
  1.170000000000000E-002    5.784959645965390E-039
  1.180000000000000E-002    4.871097946612999E-039
  1.190000000000000E-002    3.015534183203140E-039
  1.200000000000000E-002    1.472401692937275E-040
  1.210000000000000E-002   -3.694732585670165E-039
  1.220000000000000E-002   -8.329069984428321E-039
  1.230000000000000E-002   -1.340816862919757E-038
  1.240000000000000E-002   -1.840838409608909E-038
  1.250000000000000E-002   -2.264083575897640E-038
  1.260000000000000E-002   -2.528839058966032E-038
  1.270000000000000E-002   -2.547273670609191E-038
  1.280000000000000E-002   -2.235259199819711E-038
  1.290000000000000E-002   -1.525007925951692E-038
  1.300000000000000E-002   -3.797287918227183E-039
  1.310000000000000E-002    1.191046387089842E-038
  1.320000000000000E-002    3.117374525884021E-038
  1.330000000000000E-002    5.258423641681315E-038
  1.340000000000000E-002    7.398269882299771E-038
  1.350000000000000E-002    9.250629264860685E-038
  1.360000000000000E-002    1.047481740341319E-037
  1.370000000000000E-002    1.070439882144848E-037
  1.380000000000000E-002    9.588684616725023E-038
  1.390000000000000E-002    6.845486323806244E-038
  1.400000000000000E-002    2.321449588144573E-038
  1.410000000000000E-002   -3.945965240324982E-038
  1.420000000000000E-002   -1.167288470060951E-037
  1.430000000000000E-002   -2.028952150172905E-037
  1.440000000000000E-002   -2.892727814294077E-037
  1.450000000000000E-002   -3.644258126800962E-037
  1.460000000000000E-002   -4.148562027659937E-037
  1.470000000000000E-002   -4.261852035132696E-037
  1.480000000000000E-002   -3.848198752817583E-037
  1.490000000000000E-002   -2.800258735897361E-037
  1.500000000000000E-002   -1.062470439386626E-037
  1.510000000000000E-002    1.345678893279622E-037
  1.520000000000000E-002    4.309472498359083E-037
  1.530000000000000E-002    7.605533033380596E-037
  1.540000000000000E-002    1.089898676831269E-036
  1.550000000000000E-002    1.375477986310274E-036
  1.560000000000000E-002    1.566582247203824E-036
  1.570000000000000E-002    1.609914721336261E-036
  1.580000000000000E-002    1.455918802801972E-036
  1.590000000000000E-002    1.066469273633561E-036
  1.600000000000000E-002    4.232922992225293E-037
  1.610000000000000E-002   -4.638019772196176E-037
  1.620000000000000E-002   -1.550033576955802E-036
  1.630000000000000E-002   -2.751421793390129E-036
  1.640000000000000E-002   -3.944544293558937E-036
  1.650000000000000E-002   -4.971459982081232E-036
  1.660000000000000E-002   -5.650621553242746E-036
  1.670000000000000E-002   -5.794026554191299E-036
  1.680000000000000E-002   -5.230103761777177E-036
  1.690000000000000E-002   -3.830911246861134E-036
  1.700000000000000E-002   -1.541248934058602E-036
  1.710000000000000E-002    1.593625769268302E-036
  1.720000000000000E-002    5.405756904676952E-036
  1.730000000000000E-002    9.592181174507909E-036
  1.740000000000000E-002    1.371693932087922E-035
  1.750000000000000E-002    1.723109523259898E-035
  1.760000000000000E-002    1.951309418490002E-035
  1.770000000000000E-002    1.992969561734629E-035
  1.780000000000000E-002    1.791510960540967E-035
  1.790000000000000E-002    1.306285840796457E-035
  1.800000000000000E-002    5.221772089085573E-036
  1.810000000000000E-002   -5.415371033618542E-036
  1.820000000000000E-002   -1.824413023198070E-035
  1.830000000000000E-002   -3.221604496306824E-035
  1.840000000000000E-002   -4.585528424365142E-035
  1.850000000000000E-002   -5.733509566732846E-035
  1.860000000000000E-002   -6.461987033314941E-035
  1.870000000000000E-002   -6.567158128345639E-035