 -4.000000000000000E-002    0.000000000000000E+000
 -3.990000000000000E-002    0.000000000000000E+000
 -3.980000000000000E-002    0.000000000000000E+000
 -3.970000000000000E-002    0.000000000000000E+000
 -3.960000000000000E-002    0.000000000000000E+000
 -3.950000000000000E-002    0.000000000000000E+000
 -3.940000000000000E-002    0.000000000000000E+000
 -3.930000000000000E-002    0.000000000000000E+000
 -3.920000000000000E-002   -5.763683009221367E-031
 -3.910000000000000E-002   -9.456422466908189E-030
 -3.900000000000000E-002   -8.214358373769303E-029
 -3.890000000000000E-002   -5.025787003098343E-028
 -3.880000000000000E-002   -2.431278679123478E-027
 -3.870000000000000E-002   -9.897683532248485E-027
 -3.860000000000000E-002   -3.523781128346557E-026
 -3.850000000000000E-002   -1.125616799175889E-025
 -3.840000000000000E-002   -3.284276705794281E-025
 -3.830000000000000E-002   -8.865989480670433E-025
 -3.820000000000000E-002   -2.235240042611722E-024
 -3.810000000000000E-002   -5.299589716375511E-024
 -3.800000000000000E-002   -1.187747166012582E-023
 -3.790000000000000E-002   -2.526030089374130E-023
 -3.780000000000000E-002   -5.112246385861805E-023
 -3.770000000000000E-002   -9.865239414687852E-023
 -3.760000000000000E-002   -1.817478674170043E-022
 -3.750000000000000E-002   -3.198338140431449E-022
 -3.740000000000000E-002   -5.374641257742312E-022
 -3.730000000000000E-002   -8.613535715224356E-022
 -3.720000000000000E-002   -1.312925102871259E-021
 -3.710000000000000E-002   -1.894008664824843E-021
 -3.700000000000000E-002   -2.563250004297248E-021
 -3.690000000000000E-002   -3.201440412175582E-021
 -3.680000000000000E-002   -3.565764304795139E-021
 -3.670000000000000E-002   -3.236274424854238E-021
 -3.660000000000000E-002   -1.562939020406739E-021
 -3.650000000000000E-002    2.371745988936104E-021
 -3.640000000000000E-002    9.752009192286125E-021
 -3.630000000000000E-002    2.196016185373957E-020
 -3.620000000000000E-002    4.040562664108937E-020
 -3.610000000000000E-002    6.621767854910642E-020
 -3.600000000000000E-002    9.977667739003512E-020
 -3.590000000000000E-002    1.400783597780096E-019
 -3.580000000000000E-002    1.839582096600350E-019
 -3.570000000000000E-002    2.252480286725817E-019
 -3.560000000000000E-002    2.539912439163659E-019
 -3.550000000000000E-002    2.559015636895233E-019
 -3.540000000000000E-002    2.122997379191482E-019
 -3.530000000000000E-002    1.007940904601104E-019
 -3.520000000000000E-002   -1.030336903097827E-019
 -3.510000000000000E-002   -4.227285281384313E-019
 -3.500000000000000E-002   -8.767498896313534E-019
 -3.490000000000000E-002   -1.473022502452907E-018
 -3.480000000000000E-002   -2.202551315182275E-018
 -3.470000000000000E-002   -3.032661825055334E-018
 -3.460000000000000E-002   -3.900693007475075E-018
 -3.450000000000000E-002   -4.709191874863890E-018
 -3.440000000000000E-002   -5.323798069503296E-018
 -3.430000000000000E-002   -5.575009367178657E-018
 -3.420000000000000E-002   -5.264858467519043E-018
 -3.410000000000000E-002   -4.179170209594555E-018
 -3.400000000000000E-002   -2.105574868510659E-018
 -3.390000000000000E-002    1.143224271499662E-018
 -3.380000000000000E-002    5.702119131514745E-018
 -3.370000000000000E-002    1.162403177935332E-017
 -3.360000000000000E-002    1.885046041994044E-017
 -3.350000000000000E-002    2.718471247853826E-017
 -3.340000000000000E-002    3.627029874332554E-017
 -3.330000000000000E-002    4.557655007794586E-017
 -3.320000000000000E-002    5.439277388481361E-017
 -3.310000000000000E-002    6.183145037548925E-017
 -3.300000000000000E-002    6.684010587066447E-017
 -3.290000000000000E-002    6.822102839317997E-017
 -3.280000000000000E-002    6.465810235023109E-017
 -3.270000000000000E-002    5.475083682845099E-017
 -3.260000000000000E-002    3.705736435168196E-017
 -3.250000000000000E-002    1.015090267085825E-017
 -3.240000000000000E-002   -2.730330528461039E-017
 -3.230000000000000E-002   -7.644016651324342E-017
 -3.220000000000000E-002   -1.380439888615347E-016
 -3.210000000000000E-002   -2.123423254651690E-016
 -3.200000000000000E-002   -2.987352130649233E-016
 -3.190000000000000E-002   -3.954559199124558E-016
 -3.180000000000000E-002   -4.991710743135227E-016
 -3.170000000000000E-002   -6.045427329529024E-016
 -3.160000000000000E-002   -7.037931016736605E-016
 -3.150000000000000E-002   -7.863351445943689E-016
 -3.140000000000000E-002   -8.385504374238638E-016
 -3.130000000000000E-002   -8.438168449648767E-016
 -3.120000000000000E-002   -7.828949257880578E-016
 -3.110000000000000E-002   -6.347822462700916E-016
 -3.100000000000000E-002   -3.781305521058928E-016
 -3.090000000000000E-002    6.720070977430554E-018
 -3.080000000000000E-002    5.350850370862049E-016
 -3.070000000000000E-002    1.214730135950984E-015
 -3.060000000000000E-002    2.042279592012730E-015
 -3.050000000000000E-002    2.999501262022152E-015
 -3.040000000000000E-002    4.049834848568621E-015
 -3.030000000000000E-002    5.135613334011648E-015
 -3.020000000000000E-002    6.176499108798162E-015
 -3.010000000000000E-002    7.069672052592158E-015
 -3.000000000000000E-002    7.692281191985151E-015
 -2.990000000000000E-002    7.906566634093376E-015
 -2.980000000000000E-002    7.567899292524223E-015
 -2.970000000000000E-002    6.535735916292119E-015
 -2.960000000000000E-002    4.687204423266827E-015
 -2.950000000000000E-002    1.932666289452100E-015
 -2.940000000000000E-002   -1.767725969896542E-015
 -2.930000000000000E-002   -6.387801445688337E-015
 -2.920000000000000E-002   -1.182106469010645E-014
 -2.910000000000000E-002   -1.787005955698143E-014
 -2.900000000000000E-002   -2.424115919912316E-014
 -2.890000000000000E-002   -3.054637378065891E-014
 -2.880000000000000E-002   -3.631340844059677E-014
 -2.870000000000000E-002   -4.100463855406337E-014
 -2.860000000000000E-002   -4.404495794927743E-014
 -2.850000000000000E-002   -4.485768815031361E-014
 -2.840000000000000E-002   -4.290667885862847E-014
 -2.830000000000000E-002   -3.774222835787827E-014
 -2.820000000000000E-002   -2.904740644512168E-014
 -2.810000000000000E-002   -1.668124177141467E-014
 -2.800000000000000E-002   -7.149243684915227E-016
 -2.790000000000000E-002    1.854250796235227E-014
 -2.780000000000000E-002    4.053184995202460E-014
 -2.770000000000000E-002    6.444675610080054E-014
 -2.760000000000000E-002    8.925273239004935E-014
 -2.750000000000000E-002    1.137214538568308E-013
 -2.740000000000000E-002    1.364782752346652E-013
 -2.730000000000000E-002    1.560598250664739E-013
 -2.720000000000000E-002    1.709777555600843E-013
 -2.710000000000000E-002    1.797842903899442E-013
 -2.700000000000000E-002    1.811358501654178E-013
 -2.690000000000000E-002    1.738516502078071E-013
 -2.680000000000000E-002    1.569657518888459E-013
 -2.670000000000000E-002    1.297725334336210E-013
 -2.660000000000000E-002    9.186712970565322E-014
 -2.650000000000000E-002    4.318422629386399E-014
 -2.640000000000000E-002   -1.596136717706694E-014
 -2.630000000000000E-002   -8.482861184593173E-014
 -2.620000000000000E-002   -1.621963896157255E-013
 -2.610000000000000E-002   -2.463020705826394E-013
 -2.600000000000000E-002   -3.347760869068609E-013
 -2.590000000000000E-002   -4.245802290762226E-013
 -2.580000000000000E-002   -5.119614734848512E-013
 -2.570000000000000E-002   -5.924368672183357E-013
 -2.560000000000000E-002   -6.608274153475817E-013
 -2.550000000000000E-002   -7.113594450429708E-013
 -2.540000000000000E-002   -7.378488093227779E-013
 -2.530000000000000E-002   -7.339796553590020E-013
 -2.520000000000000E-002   -6.936799914276227E-013
 -2.510000000000000E-002   -6.115862843779750E-013
 -2.500000000000000E-002   -4.835772740096425E-013
 -2.490000000000000E-002   -3.073437991490498E-013
 -2.480000000000000E-002   -8.295041490201652E-014
 -2.470000000000000E-002    1.866653935302374E-013
 -2.460000000000000E-002    4.953139055564074E-013
 -2.450000000000000E-002    8.333518247207946E-013
 -2.440000000000000E-002    1.187708645392633E-012
 -2.430000000000000E-002    1.542177143198706E-012
 -2.420000000000000E-002    1.877983105269476E-012
 -2.410000000000000E-002    2.174627159533214E-012
 -2.400000000000000E-002    2.410961880734808E-012
 -2.390000000000000E-002    2.566443121576738E-012
 -2.380000000000000E-002    2.622471106225305E-012
 -2.370000000000000E-002    2.563717707018740E-012
 -2.360000000000000E-002    2.379334439243713E-012
 -2.350000000000000E-002    2.063932292467264E-012
 -2.340000000000000E-002    1.618246250375260E-012
 -2.330000000000000E-002    1.049418185385452E-012
 -2.320000000000000E-002    3.708676659820265E-013
 -2.310000000000000E-002   -3.982379910122518E-013
 -2.300000000000000E-002   -1.233865457364619E-012
 -2.290000000000000E-002   -2.108260824189412E-012
 -2.280000000000000E-002   -2.991243845873046E-012
 -2.270000000000000E-002   -3.851521672308456E-012
 -2.260000000000000E-002   -4.657890982212188E-012
 -2.250000000000000E-002   -5.380217241629045E-012
 -2.240000000000000E-002   -5.990115206923450E-012
 -2.230000000000000E-002   -6.461298635213731E-012
 -2.220000000000000E-002   -6.769621340018689E-012
 -2.210000000000000E-002   -6.892891587798488E-012
 -2.200000000000000E-002   -6.810587798763483E-012
 -2.190000000000000E-002   -6.503637503745636E-012
 -2.180000000000000E-002   -5.954441021667881E-012
 -2.170000000000000E-002   -5.147306954063685E-012
 -2.160000000000000E-002   -4.069431959082363E-012
 -2.150000000000000E-002   -2.712494807005625E-012
 -2.140000000000000E-002   -1.074851100156146E-012
 -2.130000000000000E-002    8.357835279793979E-013
 -2.120000000000000E-002    2.999366099151041E-012
 -2.110000000000000E-002    5.380577880796240E-012
 -2.100000000000000E-002    7.926256518570330E-012
 -2.090000000000000E-002    1.056361544052190E-011
 -2.080000000000000E-002    1.319964794927625E-011
 -2.070000000000000E-002    1.572206115982024E-011
 -2.060000000000000E-002    1.800199711942833E-011
 -2.050000000000000E-002    1.989865563821343E-011
 -2.040000000000000E-002    2.126577420018463E-011
 -2.030000000000000E-002    2.195972237939741E-011
 -2.020000000000000E-002    2.184881212278700E-011
 -2.010000000000000E-002    2.082323514363866E-011
 -2.000000000000000E-002    1.880492420591229E-011
 -1.990000000000000E-002    1.575656098682059E-011
 -1.980000000000000E-002    1.168894453051689E-011
 -1.970000000000000E-002    6.665981748189294E-012
 -1.960000000000000E-002    8.067107435931087E-013
 -1.950000000000000E-002   -5.716055901252326E-012
 -1.940000000000000E-002   -1.268063502730612E-011
 -1.930000000000000E-002   -1.982481201882124E-011
 -1.920000000000000E-002   -2.685725090066120E-011
 -1.910000000000000E-002   -3.347131044884980E-011
 -1.900000000000000E-002   -3.936044281522239E-011
 -1.890000000000000E-002   -4.423412070553310E-011
 -1.880000000000000E-002   -4.783325681514650E-011
 -1.870000000000000E-002   -4.994401487949291E-011
 -1.860000000000000E-002   -5.040906167079435E-011
 -1.850000000000000E-002   -4.913550341508393E-011
 -1.840000000000000E-002   -4.609898995991042E-011
 -1.830000000000000E-002   -4.134376703875207E-011
 -1.820000000000000E-002   -3.497886536343340E-011
 -1.810000000000000E-002   -2.717082255896869E-011
 -1.800000000000000E-002   -1.813370323515066E-011
 -1.790000000000000E-002   -8.117369443199887E-012
 -1.780000000000000E-002    2.604950782351781E-012
 -1.770000000000000E-002    1.374865935867896E-011
 -1.760000000000000E-002    2.502838415763168E-011
 -1.750000000000000E-002    3.616633139869100E-011
 -1.740000000000000E-002    4.689789414826660E-011
 -1.730000000000000E-002    5.697429407637644E-011
 -1.720000000000000E-002    6.616252544760075E-011
 -1.710000000000000E-002    7.424308207898492E-011
 -1.700000000000000E-002    8.100640185357102E-011
 -1.690000000000000E-002    8.624913976456243E-011
 -1.680000000000000E-002    8.977147395528905E-011
 -1.670000000000000E-002    9.137663743161671E-011
 -1.660000000000000E-002    9.087365621859319E-011
 -1.650000000000000E-002    8.808397790551170E-011
 -1.640000000000000E-002    8.285213851190714E-011
 -1.630000000000000E-002    7.506015303402406E-011
 -1.620000000000000E-002    6.464467793163361E-011
 -1.610000000000000E-002    5.161543051592966E-011
 -1.600000000000000E-002    3.607297295983378E-011
 -1.590000000000000E-002    1.822358663252599E-011
 -1.580000000000000E-002   -1.611023343547751E-012
 -1.570000000000000E-002   -2.299137783888308E-011
 -1.560000000000000E-002   -4.536684645112524E-011
 -1.550000000000000E-002   -6.809223669549332E-011
 -1.540000000000000E-002   -9.045441645579125E-011
 -1.530000000000000E-002   -1.117079135308048E-010
 -1.520000000000000E-002   -1.311174145049197E-010
 -1.510000000000000E-002   -1.480040198041840E-010
 -1.500000000000000E-002   -1.617912029954144E-010
 -1.490000000000000E-002   -1.720460172549444E-010
 -1.480000000000000E-002   -1.785108315940712E-010
 -1.470000000000000E-002   -1.811213791562291E-010
 -1.460000000000000E-002   -1.800075272339599E-010
 -1.450000000000000E-002   -1.754748124262863E-010
 -1.440000000000000E-002   -1.679662165941574E-010
 -1.430000000000000E-002   -1.580059170799991E-010
 -1.420000000000000E-002   -1.461286531794724E-010
 -1.410000000000000E-002   -1.328004664235550E-010
 -1.400000000000000E-002   -1.183381428474654E-010
 -1.390000000000000E-002   -1.028359694482555E-010
 -1.380000000000000E-002   -8.610862354833290E-011
 -1.370000000000000E-002   -6.765872158549826E-011
 -1.360000000000000E-002   -4.667621566427889E-011
 -1.350000000000000E-002   -2.207457643721932E-011
 -1.340000000000000E-002    7.434275492601855E-012
 -1.330000000000000E-002    4.322770547203875E-011
 -1.320000000000000E-002    8.662800586851910E-011
 -1.310000000000000E-002    1.387348119786301E-010
 -1.300000000000000E-002    2.002464365161374E-010
 -1.290000000000000E-002    2.712844453383941E-010
 -1.280000000000000E-002    3.512375728104143E-010
 -1.270000000000000E-002    4.386402977726539E-010
 -1.260000000000000E-002    5.311009272334371E-010
 -1.250000000000000E-002    6.252901755364743E-010
 -1.240000000000000E-002    7.169978757580990E-010
 -1.230000000000000E-002    8.012597572032626E-010
 -1.220000000000000E-002    8.725510141286644E-010
 -1.210000000000000E-002    9.250378686154277E-010
 -1.200000000000000E-002    9.528726650359164E-010
 -1.190000000000000E-002    9.505140111156720E-010
 -1.180000000000000E-002    9.130518831768185E-010
 -1.170000000000000E-002    8.365149109772331E-010
 -1.160000000000000E-002    7.181404172011997E-010
 -1.150000000000000E-002    5.565895045233118E-010
 -1.140000000000000E-002    3.520944106129360E-010
 -1.130000000000000E-002    1.065329309676755E-010
 -1.120000000000000E-002   -1.765697701443862E-010
 -1.110000000000000E-002   -4.921044679492334E-010
 -1.100000000000000E-002   -8.334919977317262E-010
 -1.090000000000000E-002   -1.192830507916767E-009
 -1.080000000000000E-002   -1.561054458508187E-009
 -1.070000000000000E-002   -1.928085581157730E-009
 -1.060000000000000E-002   -2.282958319818231E-009
 -1.050000000000000E-002   -2.613907432552071E-009
 -1.040000000000000E-002   -2.908416339605511E-009
 -1.030000000000000E-002   -3.153229651749335E-009
 -1.020000000000000E-002   -3.334348603280875E-009
 -1.010000000000000E-002   -3.437033690576477E-009
 -1.000000000000000E-002   -3.445849765613958E-009
 -9.899999999999999E-003   -3.344791513782542E-009
 -9.800000000000000E-003   -3.117528568669085E-009
 -9.699999999999999E-003   -2.747808353772583E-009
 -9.599999999999999E-003   -2.220044006140432E-009
 -9.500000000000000E-003   -1.520100771360326E-009
 -9.399999999999999E-003   -6.362812975608316E-010
 -9.299999999999999E-003    4.395128137981450E-010
 -9.200000000000000E-003    1.710487448171107E-009
 -9.099999999999999E-003    3.173590981756826E-009
 -8.999999999999999E-003    4.818163318500490E-009
 -8.900000000000000E-003    6.624691902528933E-009
 -8.799999999999999E-003    8.563780131879356E-009
 -8.699999999999999E-003    1.059543330870049E-008
 -8.600000000000000E-003    1.266875727989362E-008
 -8.499999999999999E-003    1.472216024092052E-008
 -8.399999999999999E-003    1.668411369359043E-008
 -8.300000000000000E-003    1.847450898037130E-008
 -8.199999999999999E-003    2.000661572464873E-008
 -8.100000000000000E-003    2.118961452696266E-008
 -8.000000000000000E-003    2.193164718255372E-008
 -7.899999999999999E-003    2.214328935097135E-008
 -7.800000000000000E-003    2.174135430214891E-008
 -7.699999999999999E-003    2.065290346100404E-008
 -7.599999999999999E-003    1.881933500466337E-008
 -7.499999999999999E-003    1.620044721238294E-008
 -7.399999999999999E-003    1.277836263788384E-008
 -7.299999999999999E-003    8.561255582408333E-009
 -7.199999999999999E-003    3.586805133100834E-009
 -7.100000000000000E-003   -2.074635355659945E-009
 -6.999999999999999E-003   -8.317144897189843E-009
 -6.899999999999999E-003   -1.499657430954327E-008
 -6.800000000000000E-003   -2.192811523516486E-008
 -6.699999999999999E-003   -2.888398662675344E-008
 -6.599999999999999E-003   -3.559119333052913E-008
 -6.499999999999999E-003   -4.172939106766343E-008
 -6.399999999999999E-003   -4.692868698529977E-008
 -6.299999999999999E-003   -5.076753757162771E-008
 -6.199999999999999E-003   -5.277068982832002E-008
 -6.100000000000000E-003   -5.240730083613182E-008
 -5.999999999999999E-003   -4.908926947753801E-008
 -5.899999999999999E-003   -4.217005732147556E-008
 -5.800000000000000E-003   -3.094399375785483E-008
 -5.699999999999999E-003   -1.464634498900663E-008
 -5.599999999999999E-003    7.545720674719151E-009
 -5.499999999999999E-003    3.651123392367557E-008
 -5.399999999999999E-003    7.318234923562079E-008
 -5.299999999999999E-003    1.185402789517309E-007
 -5.199999999999999E-003    1.736100511437041E-007
 -5.099999999999999E-003    2.394543222717390E-007
 -4.999999999999999E-003    3.171663878787555E-007
 -4.899999999999999E-003    4.078626689793222E-007
 -4.799999999999999E-003    5.126747596852095E-007
 -4.699999999999999E-003    6.327416630328337E-007
 -4.599999999999999E-003    7.692020939200952E-007
 -4.499999999999999E-003    9.231880176318847E-007
 -4.399999999999999E-003    1.095818529037885E-006
 -4.299999999999999E-003    1.288195460574009E-006
 -4.199999999999999E-003    1.501400238122544E-006
 -4.099999999999999E-003    1.736492213144185E-006
 -3.999999999999999E-003    1.994509138428493E-006
 -3.899999999999999E-003    2.276468650650354E-006
 -3.799999999999999E-003    2.583372236409712E-006
 -3.699999999999999E-003    2.916208802838888E-006
 -3.599999999999999E-003    3.275961846796132E-006
 -3.499999999999999E-003    3.663615401291662E-006
 -3.399999999999999E-003    4.080161342368741E-006
 -3.299999999999999E-003    4.526608053382093E-006
 -3.199999999999999E-003    5.003987505081438E-006
 -3.099999999999999E-003    5.513364044465375E-006
 -2.999999999999999E-003    6.055842825161785E-006
 -2.899999999999999E-003    6.632576739404782E-006
 -2.799999999999999E-003    7.244775375410791E-006
 -2.699999999999999E-003    7.893713361973287E-006
 -2.599999999999999E-003    8.580738897041628E-006
 -2.499999999999999E-003    9.307281722076012E-006
 -2.399999999999999E-003    1.007486664601185E-005
 -2.299999999999999E-003    1.088512144663179E-005
 -2.199999999999999E-003    1.173979046031503E-005
 -2.099999999999999E-003    1.264074952725583E-005
 -1.999999999999999E-003    1.359002021626658E-005
 -1.899999999999999E-003    1.458978802410904E-005
 -1.799999999999999E-003    1.564242001700078E-005
 -1.699999999999999E-003    1.675048238274780E-005
 -1.599999999999999E-003    1.791676466107411E-005
 -1.499999999999999E-003    1.914429491876820E-005
 -1.399999999999999E-003    2.043636135646188E-005
 -1.299999999999999E-003    2.179652662897587E-005
 -1.199999999999999E-003    2.322865338038942E-005
 -1.099999999999999E-003    2.473690750153834E-005
 -9.999999999999989E-004    2.632577942012582E-005
 -8.999999999999990E-004    2.800008814461061E-005
 -7.999999999999990E-004    2.976498860511208E-005
 -6.999999999999989E-004    3.162597475935563E-005
 -5.999999999999990E-004    3.358887650253957E-005
 -4.999999999999989E-004    3.565987138375781E-005
 -3.999999999999989E-004    3.784546033737889E-005
 -2.999999999999989E-004    4.015248405957812E-005
 -1.999999999999989E-004    4.258810441124843E-005
 -9.999999999999892E-005    4.515981600737325E-005
  1.084202172485504E-018    4.787543357718139E-005
  1.000000000000011E-004    5.074309687058822E-005
  2.000000000000011E-004    5.377127393292036E-005
  3.000000000000011E-004    5.696877885256487E-005
  4.000000000000011E-004    6.034477421226556E-005
  5.000000000000011E-004    6.390879622156448E-005
  6.000000000000011E-004    6.767076755480913E-005
  7.000000000000011E-004    7.164102335220736E-005
  8.000000000000011E-004    7.583034959947892E-005
  9.000000000000012E-004    8.025000137159218E-005
  1.000000000000001E-003    8.491172192341242E-005
  1.100000000000001E-003    8.982779252704434E-005
  1.200000000000001E-003    9.501105301364523E-005
  1.300000000000001E-003    1.004749397824542E-004
  1.400000000000001E-003    1.062334951296853E-004
  1.500000000000001E-003    1.123014004204712E-004
  1.600000000000001E-003    1.186940080790646E-004
  1.700000000000001E-003    1.254273606102099E-004
  1.800000000000001E-003    1.325181904023875E-004
  1.900000000000001E-003    1.399839548786354E-004
  2.000000000000001E-003    1.478428688342726E-004
  2.100000000000001E-003    1.561139099073054E-004
  2.200000000000001E-003    1.648168244847281E-004
  2.300000000000001E-003    1.739721674158646E-004
  2.400000000000001E-003    1.836013513811688E-004
  2.500000000000001E-003    1.937266455558816E-004
  2.600000000000001E-003    2.043712422098855E-004
  2.700000000000001E-003    2.155592532139910E-004
  2.800000000000001E-003    2.273157967612712E-004
  2.900000000000001E-003    2.396670295425653E-004
  3.000000000000001E-003    2.526401918802393E-004
  3.100000000000001E-003    2.662636578716129E-004
  3.200000000000001E-003    2.805670089227547E-004
  3.300000000000001E-003    2.955810079825335E-004
  3.400000000000001E-003    3.113377438551033E-004
  3.500000000000001E-003    3.278706348828932E-004
  3.600000000000001E-003    3.452144282514032E-004
  3.700000000000001E-003    3.634053141063702E-004
  3.800000000000001E-003    3.824808590998556E-004
  3.900000000000001E-003    4.024801236235804E-004
  4.000000000000001E-003    4.234436384994864E-004
  4.100000000000001E-003    4.454134168371059E-004
  4.200000000000001E-003    4.684330236958600E-004
  4.300000000000001E-003    4.925475091584411E-004
  4.400000000000001E-003    5.178035055819194E-004
  4.500000000000001E-003    5.442492716421212E-004
  4.600000000000002E-003    5.719346535785299E-004
  4.700000000000001E-003    6.009111282004386E-004
  4.800000000000001E-003    6.312319416349933E-004
  4.900000000000002E-003    6.629520563331606E-004
  5.000000000000001E-003    6.961283073577659E-004
  5.100000000000001E-003    7.308193540074862E-004
  5.200000000000001E-003    7.670859381073581E-004
  5.300000000000002E-003    8.049907996899092E-004
  5.400000000000001E-003    8.445988999171412E-004
  5.500000000000001E-003    8.859773285899704E-004
  5.600000000000002E-003    9.291955805623473E-004
  5.700000000000001E-003    9.743254652234833E-004
  5.800000000000001E-003    1.021441382384332E-003
  5.900000000000002E-003    1.070620046931572E-003
  6.000000000000001E-003    1.121940853744678E-003
  6.100000000000001E-003    1.175485833617983E-003
  6.200000000000002E-003    1.231339432654598E-003
  6.300000000000002E-003    1.289588932694612E-003
  6.400000000000001E-003    1.350324194788315E-003
  6.500000000000001E-003    1.413637571118623E-003
  6.600000000000002E-003    1.479624044258354E-003
  6.700000000000001E-003    1.548381341933768E-003
  6.800000000000001E-003    1.620009761992852E-003
  6.900000000000002E-003    1.694612009423439E-003
  7.000000000000001E-003    1.772293558437027E-003
  7.100000000000001E-003    1.853162624388652E-003
  7.200000000000002E-003    1.937329985770164E-003
  7.300000000000002E-003    2.024909160813008E-003
  7.400000000000001E-003    2.116016473278551E-003
  7.500000000000001E-003    2.210771151951517E-003
  7.600000000000002E-003    2.309295337172419E-003
  7.700000000000001E-003    2.411714362155887E-003
  7.800000000000001E-003    2.518156478989014E-003
  7.900000000000001E-003    2.628753438531335E-003
  8.000000000000002E-003    2.743639792929986E-003
  8.100000000000001E-003    2.862953688527565E-003
  8.200000000000001E-003    2.986836638703077E-003
  8.300000000000002E-003    3.115433385174041E-003
  8.400000000000001E-003    3.248891941540872E-003
  8.500000000000002E-003    3.387363359749083E-003
  8.600000000000002E-003    3.531002419860576E-003
  8.700000000000001E-003    3.679966827257084E-003
  8.800000000000002E-003    3.834417369769402E-003
  8.900000000000002E-003    3.994517749986864E-003
  9.000000000000001E-003    4.160434673437295E-003
  9.100000000000002E-003    4.332337549171467E-003
  9.200000000000002E-003    4.510398604107168E-003
  9.300000000000001E-003    4.694792799439300E-003
  9.400000000000002E-003    4.885697551507143E-003
  9.500000000000001E-003    5.083292914657399E-003
  9.600000000000001E-003    5.287762080826680E-003
  9.700000000000002E-003    5.499290515059798E-003
  9.800000000000001E-003    5.718065825803626E-003
  9.900000000000001E-003    5.944279171976760E-003
  1.000000000000000E-002    6.178123348483903E-003
  1.010000000000000E-002    6.419794450732547E-003
  1.020000000000000E-002    6.669490744599598E-003
  1.030000000000000E-002    6.927412870668012E-003
  1.040000000000000E-002    7.193763899520501E-003
  1.050000000000000E-002    7.468748905896334E-003
  1.060000000000000E-002    7.752575593198812E-003
  1.070000000000000E-002    8.045452906584736E-003
  1.080000000000000E-002    8.347592157384788E-003
  1.090000000000000E-002    8.659205749433414E-003
  1.100000000000000E-002    8.980506317456692E-003
  1.110000000000000E-002    9.311708671154174E-003
  1.120000000000000E-002    9.653027289029118E-003
  1.130000000000000E-002    1.000467697063897E-002
  1.140000000000000E-002    1.036687354097098E-002
  1.150000000000000E-002    1.073983055520189E-002
  1.160000000000000E-002    1.112376312931925E-002
  1.170000000000000E-002    1.151888437689928E-002
  1.180000000000000E-002    1.192540690220591E-002
  1.190000000000000E-002    1.234354240066412E-002
  1.200000000000000E-002    1.277350021463145E-002
  1.210000000000000E-002    1.321548904835893E-002
  1.220000000000000E-002    1.366971616807377E-002
  1.230000000000000E-002    1.413638606926135E-002
  1.240000000000000E-002    1.461570195330015E-002
  1.250000000000000E-002    1.510786356235316E-002
  1.260000000000000E-002    1.561306980278901E-002
  1.270000000000000E-002    1.613151485044675E-002
  1.280000000000000E-002    1.666338929189605E-002
  1.290000000000000E-002    1.720888225118419E-002
  1.300000000000000E-002    1.776817616336076E-002
  1.310000000000000E-002    1.834144981916818E-002
  1.320000000000000E-002    1.892887702632783E-002
  1.330000000000000E-002    1.953062464174285E-002
  1.340000000000000E-002    2.014685361356220E-002
  1.350000000000000E-002    2.077772023554968E-002
  1.360000000000000E-002    2.142336898158856E-002
  1.370000000000000E-002    2.208393983086685E-002
  1.380000000000000E-002    2.275956145151568E-002
  1.390000000000000E-002    2.345035613097846E-002
  1.400000000000000E-002    2.415643353072935E-002
  1.410000000000000E-002    2.487789652565985E-002
  1.420000000000000E-002    2.561483458394450E-002
  1.430000000000000E-002    2.636732905234862E-002
  1.440000000000000E-002    2.713544643701902E-002
  1.450000000000000E-002    2.791924450893794E-002
  1.460000000000000E-002    2.871876816714199E-002
  1.470000000000000E-002    2.953404834873763E-002
  1.480000000000000E-002    3.036510355238058E-002
  1.490000000000000E-002    3.121193915969640E-002
  1.500000000000000E-002    3.207454593410231E-002
  1.510000000000000E-002    3.295289635706208E-002
  1.520000000000000E-002    3.384695641297394E-002
  1.530000000000000E-002    3.475666381999060E-002
  1.540000000000000E-002    3.568194719648781E-002
  1.550000000000000E-002    3.662271539739127E-002
  1.560000000000000E-002    3.757886136990997E-002
  1.570000000000000E-002    3.855025358770913E-002
  1.580000000000000E-002    3.953674645489077E-002
  1.590000000000000E-002    4.053816788284390E-002
  1.600000000000000E-002    4.155433122135127E-002
  1.610000000000000E-002    4.258502685979011E-002
  1.620000000000000E-002    4.363001761376645E-002
  1.630000000000000E-002    4.468904804273102E-002
  1.640000000000000E-002    4.576184191754474E-002
  1.650000000000000E-002    4.684809437628198E-002
  1.660000000000000E-002    4.794747615822950E-002
  1.670000000000000E-002    4.905963416343473E-002
  1.680000000000000E-002    5.018418755536544E-002
  1.690000000000000E-002    5.132073863915616E-002
  1.700000000000000E-002    5.246885370954363E-002
  1.710000000000000E-002    5.362807488840569E-002
  1.720000000000000E-002    5.479791923927480E-002
  1.730000000000000E-002    5.597787699715855E-002
  1.740000000000000E-002    5.716741110021648E-002
  1.750000000000000E-002    5.836595015571287E-002
  1.760000000000000E-002    5.957290077349389E-002
  1.770000000000000E-002    6.078763335014157E-002
  1.780000000000000E-002    6.200949610379124E-002
  1.790000000000000E-002    6.323779881097520E-002
  1.800000000000000E-002    6.447182191192588E-002
  1.810000000000000E-002    6.571082339932618E-002
  1.820000000000000E-002    6.695401914903155E-002
  1.830000000000000E-002    6.820059089758740E-002
  1.840000000000000E-002    6.944970358971989E-002
  1.850000000000000E-002    7.070047308688639E-002
  1.860000000000000E-002    7.195198729349421E-002
  1.870000000000000E-002    7.320330561381629E-002