 -4.000000000000000E-002    0.000000000000000E+000
 -3.990000000000000E-002    0.000000000000000E+000
 -3.980000000000000E-002    0.000000000000000E+000
 -3.970000000000000E-002    0.000000000000000E+000
 -3.960000000000000E-002    0.000000000000000E+000
 -3.950000000000000E-002    0.000000000000000E+000
 -3.940000000000000E-002    0.000000000000000E+000
 -3.930000000000000E-002    0.000000000000000E+000
 -3.920000000000000E-002    0.000000000000000E+000
 -3.910000000000000E-002    0.000000000000000E+000
 -3.900000000000000E-002    0.000000000000000E+000
 -3.890000000000000E-002    0.000000000000000E+000
 -3.880000000000000E-002    0.000000000000000E+000
 -3.870000000000000E-002    0.000000000000000E+000
 -3.860000000000000E-002    0.000000000000000E+000
 -3.850000000000000E-002    0.000000000000000E+000
 -3.840000000000000E-002    0.000000000000000E+000
 -3.830000000000000E-002    0.000000000000000E+000
 -3.820000000000000E-002    0.000000000000000E+000
 -3.810000000000000E-002    0.000000000000000E+000
 -3.800000000000000E-002    0.000000000000000E+000
 -3.790000000000000E-002    0.000000000000000E+000
 -3.780000000000000E-002    0.000000000000000E+000
 -3.770000000000000E-002    0.000000000000000E+000
 -3.760000000000000E-002    0.000000000000000E+000
 -3.750000000000000E-002    0.000000000000000E+000
 -3.740000000000000E-002    0.000000000000000E+000
 -3.730000000000000E-002    0.000000000000000E+000
 -3.720000000000000E-002    0.000000000000000E+000
 -3.710000000000000E-002    0.000000000000000E+000
 -3.700000000000000E-002    0.000000000000000E+000
 -3.690000000000000E-002    0.000000000000000E+000
 -3.680000000000000E-002    0.000000000000000E+000
 -3.670000000000000E-002    0.000000000000000E+000
 -3.660000000000000E-002    0.000000000000000E+000
 -3.650000000000000E-002    0.000000000000000E+000
 -3.640000000000000E-002    0.000000000000000E+000
 -3.630000000000000E-002    0.000000000000000E+000
 -3.620000000000000E-002    0.000000000000000E+000
 -3.610000000000000E-002    0.000000000000000E+000
 -3.600000000000000E-002    0.000000000000000E+000
 -3.590000000000000E-002    0.000000000000000E+000
 -3.580000000000000E-002    0.000000000000000E+000
 -3.570000000000000E-002    0.000000000000000E+000
 -3.560000000000000E-002    0.000000000000000E+000
 -3.550000000000000E-002    0.000000000000000E+000
 -3.540000000000000E-002    0.000000000000000E+000
 -3.530000000000000E-002    0.000000000000000E+000
 -3.520000000000000E-002    0.000000000000000E+000
 -3.510000000000000E-002    0.000000000000000E+000
 -3.500000000000000E-002    0.000000000000000E+000
 -3.490000000000000E-002    0.000000000000000E+000
 -3.480000000000000E-002    0.000000000000000E+000
 -3.470000000000000E-002    0.000000000000000E+000
 -3.460000000000000E-002    0.000000000000000E+000
 -3.450000000000000E-002    0.000000000000000E+000
 -3.440000000000000E-002    0.000000000000000E+000
 -3.430000000000000E-002    0.000000000000000E+000
 -3.420000000000000E-002    0.000000000000000E+000
 -3.410000000000000E-002    0.000000000000000E+000
 -3.400000000000000E-002    0.000000000000000E+000
 -3.390000000000000E-002    0.000000000000000E+000
 -3.380000000000000E-002    0.000000000000000E+000
 -3.370000000000000E-002    0.000000000000000E+000
 -3.360000000000000E-002    0.000000000000000E+000
 -3.350000000000000E-002    0.000000000000000E+000
 -3.340000000000000E-002    0.000000000000000E+000
 -3.330000000000000E-002    0.000000000000000E+000
 -3.320000000000000E-002    0.000000000000000E+000
 -3.310000000000000E-002    0.000000000000000E+000
 -3.300000000000000E-002    0.000000000000000E+000
 -3.290000000000000E-002    0.000000000000000E+000
 -3.280000000000000E-002    0.000000000000000E+000
 -3.270000000000000E-002    0.000000000000000E+000
 -3.260000000000000E-002    0.000000000000000E+000
 -3.250000000000000E-002    0.000000000000000E+000
 -3.240000000000000E-002    0.000000000000000E+000
 -3.230000000000000E-002    0.000000000000000E+000
 -3.220000000000000E-002    0.000000000000000E+000
 -3.210000000000000E-002    0.000000000000000E+000
 -3.200000000000000E-002    0.000000000000000E+000
 -3.190000000000000E-002    0.000000000000000E+000
 -3.180000000000000E-002    0.000000000000000E+000
 -3.170000000000000E-002    0.000000000000000E+000
 -3.160000000000000E-002    0.000000000000000E+000
 -3.150000000000000E-002    0.000000000000000E+000
 -3.140000000000000E-002    0.000000000000000E+000
 -3.130000000000000E-002    0.000000000000000E+000
 -3.120000000000000E-002    0.000000000000000E+000
 -3.110000000000000E-002    0.000000000000000E+000
 -3.100000000000000E-002    0.000000000000000E+000
 -3.090000000000000E-002    0.000000000000000E+000
 -3.080000000000000E-002    0.000000000000000E+000
 -3.070000000000000E-002    0.000000000000000E+000
 -3.060000000000000E-002    0.000000000000000E+000
 -3.050000000000000E-002    0.000000000000000E+000
 -3.040000000000000E-002    0.000000000000000E+000
 -3.030000000000000E-002    0.000000000000000E+000
 -3.020000000000000E-002    0.000000000000000E+000
 -3.010000000000000E-002    0.000000000000000E+000
 -3.000000000000000E-002    0.000000000000000E+000
 -2.990000000000000E-002    0.000000000000000E+000
 -2.980000000000000E-002    0.000000000000000E+000
 -2.970000000000000E-002    0.000000000000000E+000
 -2.960000000000000E-002    0.000000000000000E+000
 -2.950000000000000E-002    0.000000000000000E+000
 -2.940000000000000E-002    0.000000000000000E+000
 -2.930000000000000E-002    0.000000000000000E+000
 -2.920000000000000E-002    0.000000000000000E+000
 -2.910000000000000E-002    0.000000000000000E+000
 -2.900000000000000E-002    0.000000000000000E+000
 -2.890000000000000E-002    0.000000000000000E+000
 -2.880000000000000E-002    0.000000000000000E+000
 -2.870000000000000E-002    0.000000000000000E+000
 -2.860000000000000E-002    0.000000000000000E+000
 -2.850000000000000E-002    0.000000000000000E+000
 -2.840000000000000E-002    0.000000000000000E+000
 -2.830000000000000E-002    0.000000000000000E+000
 -2.820000000000000E-002    0.000000000000000E+000
 -2.810000000000000E-002    0.000000000000000E+000
 -2.800000000000000E-002    0.000000000000000E+000
 -2.790000000000000E-002    0.000000000000000E+000
 -2.780000000000000E-002    0.000000000000000E+000
 -2.770000000000000E-002    0.000000000000000E+000
 -2.760000000000000E-002    0.000000000000000E+000
 -2.750000000000000E-002    0.000000000000000E+000
 -2.740000000000000E-002    0.000000000000000E+000
 -2.730000000000000E-002    0.000000000000000E+000
 -2.720000000000000E-002    0.000000000000000E+000
 -2.710000000000000E-002    0.000000000000000E+000
 -2.700000000000000E-002    0.000000000000000E+000
 -2.690000000000000E-002    0.000000000000000E+000
 -2.680000000000000E-002    0.000000000000000E+000
 -2.670000000000000E-002    0.000000000000000E+000
 -2.660000000000000E-002    0.000000000000000E+000
 -2.650000000000000E-002    0.000000000000000E+000
 -2.640000000000000E-002    1.809537322255054E-048
 -2.630000000000000E-002    3.619074644510109E-048
 -2.620000000000000E-002    5.428611966765163E-048
 -2.610000000000000E-002   -6.581620681708233E-050
 -2.600000000000000E-002    2.190070395039982E-047
 -2.590000000000000E-002    4.386722410761672E-047
 -2.580000000000000E-002    7.482661134936914E-047
 -2.570000000000000E-002    1.662172230688716E-046
 -2.560000000000000E-002    2.391397535421104E-046
 -2.550000000000000E-002    2.972790936204128E-046
 -2.540000000000000E-002    3.456096532375753E-046
 -2.530000000000000E-002    2.312276312943517E-046
 -2.520000000000000E-002    2.893357452901120E-047
 -2.510000000000000E-002   -3.394312242527148E-046
 -2.500000000000000E-002   -8.978812119692828E-046
 -2.490000000000000E-002   -1.644849173357415E-045
 -2.480000000000000E-002   -2.647964240181288E-045
 -2.470000000000000E-002   -3.969420832324551E-045
 -2.460000000000000E-002   -5.502272017216804E-045
 -2.450000000000000E-002   -6.731678265630138E-045
 -2.440000000000000E-002   -7.845482989555919E-045
 -2.430000000000000E-002   -7.083870570298198E-045
 -2.420000000000000E-002   -4.701170649998085E-045
 -2.410000000000000E-002    3.337514693937899E-046
 -2.400000000000000E-002    9.415400171804153E-045
 -2.390000000000000E-002    2.276989192247664E-044
 -2.380000000000000E-002    4.060774128979662E-044
 -2.370000000000000E-002    6.330994902865972E-044
 -2.360000000000000E-002    8.974598624889739E-044
 -2.350000000000000E-002    1.165663038710606E-043
 -2.340000000000000E-002    1.399334787853407E-043
 -2.330000000000000E-002    1.516991948994456E-043
 -2.320000000000000E-002    1.430716713244342E-043
 -2.310000000000000E-002    1.009846703762149E-043
 -2.300000000000000E-002    1.255993073223874E-044
 -2.290000000000000E-002   -1.343817531013316E-043
 -2.280000000000000E-002   -3.483957619144108E-043
 -2.270000000000000E-002   -6.330906196090585E-043
 -2.260000000000000E-002   -9.770312169333588E-043
 -2.250000000000000E-002   -1.355666054759880E-042
 -2.240000000000000E-002   -1.721475351177781E-042
 -2.230000000000000E-002   -2.003710916034768E-042
 -2.220000000000000E-002   -2.109405488212553E-042
 -2.210000000000000E-002   -1.926254289089541E-042
 -2.200000000000000E-002   -1.334730336960586E-042
 -2.190000000000000E-002   -2.178725496429519E-043
 -2.180000000000000E-002    1.511526348968368E-042
 -2.170000000000000E-002    3.894500891506876E-042
 -2.160000000000000E-002    6.900200194473137E-042
 -2.150000000000000E-002    1.040537933226344E-041
 -2.140000000000000E-002    1.418216725250835E-041
 -2.130000000000000E-002    1.789204731229279E-041
 -2.120000000000000E-002    2.108606612949483E-041
 -2.110000000000000E-002    2.321578724815353E-041
 -2.100000000000000E-002    2.363341003170988E-041
 -2.090000000000000E-002    2.157998567182006E-041
 -2.080000000000000E-002    1.615670662444639E-041
 -2.070000000000000E-002    6.270551955193698E-042
 -2.060000000000000E-002   -9.429129732735846E-042
 -2.050000000000000E-002   -3.257777836217809E-041
 -2.040000000000000E-002   -6.503798311433144E-041
 -2.030000000000000E-002   -1.086441068132060E-040
 -2.020000000000000E-002   -1.646530924050508E-040
 -2.010000000000000E-002   -2.327862925822112E-040
 -2.000000000000000E-002   -3.098190128913705E-040
 -1.990000000000000E-002   -3.877557237378049E-040
 -1.980000000000000E-002   -4.518204226285004E-040
 -1.970000000000000E-002   -4.786979385404302E-040
 -1.960000000000000E-002   -4.357325392754948E-040
 -1.950000000000000E-002   -2.820175404647950E-040
 -1.940000000000000E-002    2.758059695309169E-041
 -1.930000000000000E-002    5.344968741413481E-040
 -1.920000000000000E-002    1.264098132300654E-039
 -1.910000000000000E-002    2.209151689178835E-039
 -1.900000000000000E-002    3.310683795289656E-039
 -1.890000000000000E-002    4.439394056965263E-039
 -1.880000000000000E-002    5.382571381956732E-039
 -1.870000000000000E-002    5.842963941608722E-039
 -1.860000000000000E-002    5.456811646290010E-039
 -1.850000000000000E-002    3.837549352574194E-039
 -1.840000000000000E-002    6.489839773460284E-040
 -1.830000000000000E-002   -4.293465995904340E-039
 -1.820000000000000E-002   -1.090253020202142E-038
 -1.810000000000000E-002   -1.869846262889468E-038
 -1.800000000000000E-002   -2.671660058629115E-038
 -1.790000000000000E-002   -3.347976991986600E-038
 -1.780000000000000E-002   -3.707534829743386E-038
 -1.770000000000000E-002   -3.537167715347554E-038
 -1.760000000000000E-002   -2.639208993434417E-038
 -1.750000000000000E-002   -8.835454797815185E-039
 -1.740000000000000E-002    1.730949517149678E-038
 -1.730000000000000E-002    5.015825045868151E-038
 -1.720000000000000E-002    8.548447705806740E-038
 -1.710000000000000E-002    1.166214109504980E-037
 -1.700000000000000E-002    1.349062876138652E-037
 -1.690000000000000E-002    1.308267423562054E-037
 -1.680000000000000E-002    9.593434320394420E-038
 -1.670000000000000E-002    2.543411406286100E-038
 -1.660000000000000E-002   -7.885158916904680E-038
 -1.650000000000000E-002   -2.056869218596747E-037
 -1.640000000000000E-002   -3.325606932388738E-037
 -1.630000000000000E-002   -4.256743677129512E-037
 -1.620000000000000E-002   -4.426939721029160E-037
 -1.610000000000000E-002   -3.389595805523739E-037
 -1.600000000000000E-002   -7.735513087954407E-038
 -1.590000000000000E-002    3.587316126016020E-037
 -1.580000000000000E-002    9.509272251166291E-037
 -1.570000000000000E-002    1.632537723179306E-036
 -1.560000000000000E-002    2.280014212245442E-036
 -1.550000000000000E-002    2.713467918243695E-036
 -1.540000000000000E-002    2.710371974344235E-036
 -1.530000000000000E-002    2.035488470257946E-036
 -1.520000000000000E-002    4.877797480688533E-037
 -1.510000000000000E-002   -2.038385855393818E-036
 -1.500000000000000E-002   -5.484772821616909E-036
 -1.490000000000000E-002   -9.565270326074331E-036
 -1.480000000000000E-002   -1.372212087272230E-035
 -1.470000000000000E-002   -1.712051639447208E-035
 -1.460000000000000E-002   -1.869908279545981E-035
 -1.450000000000000E-002   -1.728914302706878E-035
 -1.440000000000000E-002   -1.180638573063107E-035
 -1.430000000000000E-002   -1.504817609448360E-036
 -1.420000000000000E-002    1.373408034240734E-035
 -1.410000000000000E-002    3.312204706498226E-035
 -1.400000000000000E-002    5.475489048240770E-035
 -1.390000000000000E-002    7.554250181136371E-035
 -1.380000000000000E-002    9.134438191761721E-035
 -1.370000000000000E-002    9.736005516285418E-035
 -1.360000000000000E-002    8.879003884590946E-035
 -1.350000000000000E-002    6.173462722499684E-035
 -1.340000000000000E-002    1.423841822880135E-035
 -1.330000000000000E-002   -5.267237839670102E-035
 -1.320000000000000E-002   -1.341634665214431E-034
 -1.310000000000000E-002   -2.212071868731350E-034
 -1.300000000000000E-002   -3.008577091954674E-034
 -1.290000000000000E-002   -3.573471877823859E-034
 -1.280000000000000E-002   -3.740529973275645E-034
 -1.270000000000000E-002   -3.362307757342835E-034
 -1.260000000000000E-002   -2.342246976316523E-034
 -1.250000000000000E-002   -6.668418008686766E-035
 -1.240000000000000E-002    1.568265886176544E-034
 -1.230000000000000E-002    4.145030007698365E-034
 -1.220000000000000E-002    6.728796464966622E-034
 -1.210000000000000E-002    8.897409860181516E-034
 -1.200000000000000E-002    1.019447788405118E-033
 -1.190000000000000E-002    1.020309499482582E-033
 -1.180000000000000E-002    8.631243483741925E-034
 -1.170000000000000E-002    5.395350729108172E-034
 -1.160000000000000E-002    6.851915600703073E-035
 -1.150000000000000E-002   -5.007399446278864E-034
 -1.140000000000000E-002   -1.091084377549372E-033
 -1.130000000000000E-002   -1.605551897746391E-033
 -1.120000000000000E-002   -1.941319267065877E-033
 -1.110000000000000E-002   -2.008018319912391E-033
 -1.100000000000000E-002   -1.747759875205575E-033
 -1.090000000000000E-002   -1.153158068188716E-033
 -1.080000000000000E-002   -2.791333988235973E-034
 -1.070000000000000E-002    7.554734144142714E-034
 -1.060000000000000E-002    1.779260990542519E-033
 -1.050000000000000E-002    2.593257620743705E-033
 -1.040000000000000E-002    3.007369813809035E-033
 -1.030000000000000E-002    2.882986164534580E-033
 -1.020000000000000E-002    2.173665875561220E-033
 -1.010000000000000E-002    9.540915863537463E-034
 -1.000000000000000E-002   -5.724639498863430E-034
 -9.899999999999999E-003   -2.095639860904421E-033
 -9.800000000000000E-003   -3.251207143345068E-033
 -9.699999999999999E-003   -3.702038248068659E-033
 -9.599999999999999E-003   -3.235016906411851E-033
 -9.500000000000000E-003   -1.854625350457717E-033
 -9.399999999999999E-003    1.512646515910740E-034
 -9.299999999999999E-003    2.199064064488200E-033
 -9.200000000000000E-003    3.471684091803428E-033
 -9.099999999999999E-003    3.065562348314796E-033
 -8.999999999999999E-003    2.159404865383903E-034
 -8.900000000000000E-003   -5.426943980194004E-033
 -8.799999999999999E-003   -1.351937914700907E-032
 -8.699999999999999E-003   -2.280942208367131E-032
 -8.600000000000000E-003   -3.105999505804819E-032
 -8.499999999999999E-003   -3.517844575925982E-032
 -8.399999999999999E-003   -3.159877703448815E-032
 -8.300000000000000E-003   -1.692308356738183E-032
 -8.199999999999999E-003    1.122500893170116E-032
 -8.100000000000000E-003    5.324278500450448E-032
 -8.000000000000000E-003    1.066517767823017E-031
 -7.899999999999999E-003    1.654678868678368E-031
 -7.800000000000000E-003    2.200553037654284E-031
 -7.699999999999999E-003    2.576524451703433E-031
 -7.599999999999999E-003    2.636836341761376E-031
 -7.499999999999999E-003    2.238525877544819E-031
 -7.399999999999999E-003    1.268641867487575E-031
 -7.299999999999999E-003   -3.253933353097944E-032
 -7.199999999999999E-003   -2.506849108112286E-031
 -7.100000000000000E-003   -5.127698759825924E-031
 -6.999999999999999E-003   -7.919259283185492E-031
 -6.899999999999999E-003   -1.050031381232422E-030
 -6.800000000000000E-003   -1.240567986901883E-030
 -6.699999999999999E-003   -1.313536428664723E-030
 -6.599999999999999E-003   -1.222102009705364E-030
 -6.499999999999999E-003   -9.302896329714911E-031
 -6.399999999999999E-003   -4.207489308976500E-031
 -6.299999999999999E-003    2.985684051339969E-031
 -6.199999999999999E-003    1.189988573709449E-030
 -6.100000000000000E-003    2.184932126058969E-030
 -5.999999999999999E-003    3.186568441987450E-030
 -5.899999999999999E-003    4.076387786008710E-030
 -5.800000000000000E-003    4.724190294510978E-030
 -5.699999999999999E-003    5.000468554608581E-030
 -5.599999999999999E-003    4.789795812684427E-030
 -5.499999999999999E-003    4.003741849216586E-030
 -5.399999999999999E-003    2.592040605147024E-030
 -5.299999999999999E-003    5.512303648389565E-031
 -5.199999999999999E-003   -2.069346008367473E-030
 -5.099999999999999E-003   -5.163627377258367E-030
 -4.999999999999999E-003   -8.566006296584038E-030
 -4.899999999999999E-003   -1.204858910195192E-029
 -4.799999999999999E-003   -1.531816169518564E-029
 -4.699999999999999E-003   -1.801373365176655E-029
 -4.599999999999999E-003   -1.970730112097837E-029
 -4.499999999999999E-003   -1.991239941744929E-029
 -4.399999999999999E-003   -1.810659348642307E-029
 -4.299999999999999E-003   -1.377461815386258E-029
 -4.199999999999999E-003   -6.477768457786675E-030
 -4.099999999999999E-003    4.048119610078010E-030
 -3.999999999999999E-003    1.776939902726376E-029
 -3.899999999999999E-003    3.421703195846887E-029
 -3.799999999999999E-003    5.235454231186248E-029
 -3.699999999999999E-003    7.047991720373314E-029
 -3.599999999999999E-003    8.619608995454779E-029
 -3.499999999999999E-003    9.648658776313143E-029
 -3.399999999999999E-003    9.792796731248148E-029
 -3.299999999999999E-003    8.705814907235915E-029
 -3.199999999999999E-003    6.089838441772143E-029
 -3.099999999999999E-003    1.759827886065846E-029
 -2.999999999999999E-003   -4.285972890244402E-029
 -2.899999999999999E-003   -1.179928493143989E-028
 -2.799999999999999E-003   -2.023106060905016E-028
 -2.699999999999999E-003   -2.871051207804497E-028
 -2.599999999999999E-003   -3.606715429326975E-028
 -2.499999999999999E-003   -4.090629809593902E-028
 -2.399999999999999E-003   -4.174295809351650E-028
 -2.299999999999999E-003   -3.719135803659791E-028
 -2.199999999999999E-003   -2.619763254462084E-028
 -2.099999999999999E-003   -8.293070397400114E-029
 -1.999999999999999E-003    1.616425543889389E-028
 -1.899999999999999E-003    4.579854616924055E-028
 -1.799999999999999E-003    7.811795278082537E-028
 -1.699999999999999E-003    1.095479303037539E-027
 -1.599999999999999E-003    1.356260351120539E-027
 -1.499999999999999E-003    1.513719369850510E-027
 -1.399999999999999E-003    1.518248588273119E-027
 -1.299999999999999E-003    1.327151805136549E-027
 -1.199999999999999E-003    9.121075102342403E-028
 -1.099999999999999E-003    2.665471926954026E-028
 -9.999999999999989E-004   -5.880543941472197E-028
 -8.999999999999990E-004   -1.598049991506640E-027
 -7.999999999999990E-004   -2.676667080955807E-027
 -6.999999999999989E-004   -3.707044327437284E-027
 -5.999999999999990E-004   -4.549721957023311E-027
 -4.999999999999989E-004   -5.054587491799426E-027
 -3.999999999999989E-004   -5.076723329533934E-027
 -2.999999999999989E-004   -4.495028461838384E-027
 -1.999999999999989E-004   -3.231950485601609E-027
 -9.999999999999892E-005   -1.272229648597862E-027
  1.084202172485504E-018    1.321696125656786E-027
  1.000000000000011E-004    4.400007895632174E-027
  2.000000000000011E-004    7.723707445911301E-027
  3.000000000000011E-004    1.097237079615475E-026
  4.000000000000011E-004    1.376239368348647E-026
  5.000000000000011E-004    1.567573013230277E-026
  6.000000000000011E-004    1.629805312859806E-026
  7.000000000000011E-004    1.526414760759844E-026
  8.000000000000011E-004    1.230725748424021E-026
  9.000000000000012E-004    7.308157700470778E-027
  1.000000000000001E-003    3.390186887747265E-028
  1.100000000000001E-003   -8.303299437117198E-027
  1.200000000000001E-003   -1.807986237364013E-026
  1.300000000000001E-003   -2.821309562767281E-026
  1.400000000000001E-003   -3.771495447130020E-026
  1.500000000000001E-003   -4.544228774389146E-026
  1.600000000000001E-003   -5.017976782206386E-026
  1.700000000000001E-003   -5.074827017555095E-026
  1.800000000000001E-003   -4.613365178126070E-026
  1.900000000000001E-003   -3.562773427954837E-026
  2.000000000000001E-003   -1.897016462270659E-026
  2.100000000000001E-003    3.522955950861860E-027
  2.200000000000001E-003    3.085995384928276E-026
  2.300000000000001E-003    6.132105031482223E-026
  2.400000000000001E-003    9.246900708272981E-026
  2.500000000000001E-003    1.212368941707579E-025
  2.600000000000001E-003    1.441020555608289E-025
  2.700000000000001E-003    1.573485274517116E-025
  2.800000000000001E-003    1.574108655813387E-025
  2.900000000000001E-003    1.412818726335199E-025
  3.000000000000001E-003    1.069553332188027E-025
  3.100000000000001E-003    5.386441722148389E-026
  3.200000000000001E-003   -1.673290375951140E-026
  3.300000000000001E-003   -1.014751192084692E-025
  3.400000000000001E-003   -1.947796212780207E-025
  3.500000000000001E-003   -2.889352346840096E-025
  3.600000000000001E-003   -3.744415581460548E-025
  3.700000000000001E-003   -4.406127717874653E-025
  3.800000000000001E-003   -4.764381207926659E-025
  3.900000000000001E-003   -4.716617288295769E-025
  4.000000000000001E-003   -4.180125024102017E-025
  4.100000000000001E-003   -3.104840848766213E-025
  4.200000000000001E-003   -1.485393710900133E-025
  4.300000000000001E-003    6.290364364351729E-026
  4.400000000000001E-003    3.128524683262460E-025
  4.500000000000001E-003    5.841248372139381E-025
  4.600000000000002E-003    8.538492525968338E-025
  4.700000000000001E-003    1.094648208437147E-024
  4.800000000000001E-003    1.276514389188286E-024
  4.900000000000002E-003    1.369317922221287E-024
  5.000000000000001E-003    1.345808780284830E-024
  5.100000000000001E-003    1.184902283615342E-024
  5.200000000000001E-003    8.749681782886498E-025
  5.300000000000002E-003    4.167973676368450E-025
  5.400000000000001E-003   -1.741091493935595E-025
  5.500000000000001E-003   -8.662752219210099E-025
  5.600000000000002E-003   -1.612314365187159E-024
  5.700000000000001E-003   -2.350554687792803E-024
  5.800000000000001E-003   -3.008338427039631E-024
  5.900000000000002E-003   -3.506973878279213E-024
  6.000000000000001E-003   -3.768151102100589E-024
  6.100000000000001E-003   -3.721467669380352E-024
  6.200000000000002E-003   -3.312543964994750E-024
  6.300000000000002E-003   -2.511071064537784E-024
  6.400000000000001E-003   -1.318025984544384E-024
  6.500000000000001E-003    2.287520015013969E-025
  6.600000000000002E-003    2.051422274709308E-024
  6.700000000000001E-003    4.032140771537604E-024
  6.800000000000001E-003    6.016733292691070E-024
  6.900000000000002E-003    7.822333091151528E-024
  7.000000000000001E-003    9.248982455709932E-024
  7.100000000000001E-003    1.009481704832809E-023
  7.200000000000002E-003    1.017409767773550E-023
  7.300000000000002E-003    9.336959333844452E-024
  7.400000000000001E-003    7.489411980137575E-024
  7.500000000000001E-003    4.611860792308476E-024
  7.600000000000002E-003    7.742312615155733E-025
  7.700000000000001E-003   -3.854238718625517E-024
  7.800000000000001E-003   -9.002338473339996E-024
  7.900000000000001E-003   -1.430285298062242E-023
  8.000000000000002E-003   -1.930816181587802E-023
  8.100000000000001E-003   -2.351577485211258E-023
  8.200000000000001E-003   -2.640332459098550E-023
  8.300000000000002E-003   -2.747155961609580E-023
  8.400000000000001E-003   -2.629295207418102E-023
  8.500000000000002E-003   -2.256257465969614E-023
  8.600000000000002E-003   -1.614711396397016E-023
  8.700000000000001E-003   -7.127290778331191E-024
  8.800000000000002E-003    4.171269913669053E-024
  8.900000000000002E-003    1.716354776431009E-023
  9.000000000000001E-003    3.101119074899623E-023
  9.100000000000002E-003    4.465219696223236E-023
  9.200000000000002E-003    5.685566863055061E-023
  9.300000000000001E-003    6.630104362123502E-023
  9.400000000000002E-003    7.167889625490535E-023
  9.500000000000001E-003    7.180790498156354E-023
  9.600000000000001E-003    6.576022892819822E-023
  9.700000000000002E-003    5.298547523506694E-023
  9.800000000000001E-003    3.342196048024645E-023
  9.900000000000001E-003    7.583308320089595E-024
  1.000000000000000E-002   -2.339125633464366E-023
  1.010000000000000E-002   -5.773302599901924E-023
  1.020000000000000E-002   -9.309389977493149E-023
  1.030000000000000E-002   -1.266542846629139E-022
  1.040000000000000E-002   -1.552880764906743E-022
  1.050000000000000E-002   -1.757789280252658E-022
  1.060000000000000E-002   -1.850767183666439E-022
  1.070000000000000E-002   -1.805781231881410E-022
  1.080000000000000E-002   -1.604111099701337E-022
  1.090000000000000E-002   -1.237000489430448E-022
  1.100000000000000E-002   -7.078712490445648E-023
  1.110000000000000E-002   -3.385928912541913E-024
  1.120000000000000E-002    7.535398481421095E-023
  1.130000000000000E-002    1.608883170434256E-022
  1.140000000000000E-002    2.474353350052287E-022
  1.150000000000000E-002    3.282519707661549E-022
  1.160000000000000E-002    3.960221968940712E-022
  1.170000000000000E-002    4.433426617547904E-022
  1.180000000000000E-002    4.632812401431367E-022
  1.190000000000000E-002    4.499764560275399E-022
  1.200000000000000E-002    3.992388654431827E-022
  1.210000000000000E-002    3.091115791635102E-022
  1.220000000000000E-002    1.803439411128974E-022
  1.230000000000000E-002    1.673394407304881E-023
  1.240000000000000E-002   -1.747028624359552E-022
  1.250000000000000E-002   -3.837725391125320E-022
  1.260000000000000E-002   -5.973768595668404E-022
  1.270000000000000E-002   -8.000361345431987E-022
  1.280000000000000E-002   -9.746602323619132E-022
  1.290000000000000E-002   -1.103551287427952E-021
  1.300000000000000E-002   -1.169603186642558E-021
  1.310000000000000E-002   -1.157644317804640E-021
  1.320000000000000E-002   -1.055852584665716E-021
  1.330000000000000E-002   -8.571543588320158E-022
  1.340000000000000E-002   -5.605066002930829E-022
  1.350000000000000E-002   -1.719524592392200E-022
  1.360000000000000E-002    2.946621447706838E-022
  1.370000000000000E-002    8.174185392845339E-022
  1.380000000000000E-002    1.366595376990853E-021
  1.390000000000000E-002    1.905550108172649E-021
  1.400000000000000E-002    2.392252633061401E-021
  1.410000000000000E-002    2.781468287151556E-021
  1.420000000000000E-002    3.027545717739726E-021
  1.430000000000000E-002    3.087706880589102E-021
  1.440000000000000E-002    2.925688972403558E-021
  1.450000000000000E-002    2.515532548660012E-021
  1.460000000000000E-002    1.845266686068798E-021
  1.470000000000000E-002    9.202050298156561E-022
  1.480000000000000E-002   -2.344540706543743E-022
  1.490000000000000E-002   -1.572034087825865E-021
  1.500000000000000E-002   -3.024084781852858E-021
  1.510000000000000E-002   -4.501637856407525E-021
  1.520000000000000E-002   -5.898195399126322E-021
  1.530000000000000E-002   -7.094547055541094E-021
  1.540000000000000E-002   -7.965391679040893E-021
  1.550000000000000E-002   -8.387603855018466E-021
  1.560000000000000E-002   -8.249844231363472E-021
  1.570000000000000E-002   -7.463041499100639E-021
  1.580000000000000E-002   -5.971133881349240E-021
  1.590000000000000E-002   -3.761304906931187E-021
  1.600000000000000E-002   -8.728499390918185E-022
  1.610000000000000E-002    2.596262780007322E-021
  1.620000000000000E-002    6.486089271284556E-021
  1.630000000000000E-002    1.057553787792580E-020
  1.640000000000000E-002    1.458806846525937E-020
  1.650000000000000E-002    1.820275738608543E-020
  1.660000000000000E-002    2.107089906967038E-020
  1.670000000000000E-002    2.283789985961352E-020
  1.680000000000000E-002    2.316975184322473E-020
  1.690000000000000E-002    2.178285471406677E-020
  1.700000000000000E-002    1.847544215972928E-020
  1.710000000000000E-002    1.315839063217915E-020
  1.720000000000000E-002    5.882816310250363E-021
  1.730000000000000E-002   -3.138361840220477E-021
  1.740000000000000E-002   -1.351778147161733E-020
  1.750000000000000E-002   -2.469258467720148E-020
  1.760000000000000E-002   -3.593716388898288E-020
  1.770000000000000E-002   -4.639122492220149E-020
  1.780000000000000E-002   -5.510363550195299E-020
  1.790000000000000E-002   -6.109138295239109E-020
  1.800000000000000E-002   -6.341152960506209E-020
  1.810000000000000E-002   -6.124269850147851E-020
  1.820000000000000E-002   -5.397116183426672E-020
  1.830000000000000E-002   -4.127542202712120E-020
  1.840000000000000E-002   -2.320219594820078E-020
  1.850000000000000E-002   -2.262656187302667E-022
  1.860000000000000E-002    2.671337928253951E-020
  1.870000000000000E-002    5.620800782716632E-020