 -4.000000000000000E-002    0.000000000000000E+000
 -3.990000000000000E-002    0.000000000000000E+000
 -3.980000000000000E-002    0.000000000000000E+000
 -3.970000000000000E-002    0.000000000000000E+000
 -3.960000000000000E-002    0.000000000000000E+000
 -3.950000000000000E-002    0.000000000000000E+000
 -3.940000000000000E-002    0.000000000000000E+000
 -3.930000000000000E-002    0.000000000000000E+000
 -3.920000000000000E-002    0.000000000000000E+000
 -3.910000000000000E-002    0.000000000000000E+000
 -3.900000000000000E-002    0.000000000000000E+000
 -3.890000000000000E-002    0.000000000000000E+000
 -3.880000000000000E-002    0.000000000000000E+000
 -3.870000000000000E-002    0.000000000000000E+000
 -3.860000000000000E-002    0.000000000000000E+000
 -3.850000000000000E-002    0.000000000000000E+000
 -3.840000000000000E-002    0.000000000000000E+000
 -3.830000000000000E-002    0.000000000000000E+000
 -3.820000000000000E-002    0.000000000000000E+000
 -3.810000000000000E-002    0.000000000000000E+000
 -3.800000000000000E-002    0.000000000000000E+000
 -3.790000000000000E-002    0.000000000000000E+000
 -3.780000000000000E-002    0.000000000000000E+000
 -3.770000000000000E-002    0.000000000000000E+000
 -3.760000000000000E-002    0.000000000000000E+000
 -3.750000000000000E-002    0.000000000000000E+000
 -3.740000000000000E-002    0.000000000000000E+000
 -3.730000000000000E-002    0.000000000000000E+000
 -3.720000000000000E-002    0.000000000000000E+000
 -3.710000000000000E-002    0.000000000000000E+000
 -3.700000000000000E-002    0.000000000000000E+000
 -3.690000000000000E-002    0.000000000000000E+000
 -3.680000000000000E-002    0.000000000000000E+000
 -3.670000000000000E-002    0.000000000000000E+000
 -3.660000000000000E-002    0.000000000000000E+000
 -3.650000000000000E-002    0.000000000000000E+000
 -3.640000000000000E-002   -6.376144329604683E-048
 -3.630000000000000E-002   -1.738623306400949E-046
 -3.620000000000000E-002   -3.339609851074926E-046
 -3.610000000000000E-002   -8.156934120019921E-046
 -3.600000000000000E-002   -1.998612493388567E-045
 -3.590000000000000E-002   -4.907986507192188E-045
 -3.580000000000000E-002   -1.091673531919601E-044
 -3.570000000000000E-002   -2.294546763463079E-044
 -3.560000000000000E-002   -4.553386534130411E-044
 -3.550000000000000E-002   -8.542291682655414E-044
 -3.540000000000000E-002   -1.517827860780308E-043
 -3.530000000000000E-002   -2.524301763917163E-043
 -3.520000000000000E-002   -3.880980482669649E-043
 -3.510000000000000E-002   -5.332581958847566E-043
 -3.500000000000000E-002   -6.043773496211560E-043
 -3.490000000000000E-002   -4.042102023160815E-043
 -3.480000000000000E-002    4.631831019099411E-043
 -3.470000000000000E-002    2.714629227047629E-042
 -3.460000000000000E-002    7.521345856208505E-042
 -3.450000000000000E-002    1.663069624632338E-041
 -3.440000000000000E-002    3.237144293768864E-041
 -3.430000000000000E-002    5.740563729434646E-041
 -3.420000000000000E-002    9.398953619049615E-041
 -3.410000000000000E-002    1.424473614301199E-040
 -3.400000000000000E-002    1.985340873603182E-040
 -3.390000000000000E-002    2.494598412156314E-040
 -3.380000000000000E-002    2.686027774608177E-040
 -3.370000000000000E-002    2.095184559393276E-040
 -3.360000000000000E-002    6.860790207772682E-043
 -3.350000000000000E-002   -4.564018296801905E-040
 -3.340000000000000E-002   -1.282016705825669E-039
 -3.330000000000000E-002   -2.601219213487450E-039
 -3.320000000000000E-002   -4.510846624456095E-039
 -3.310000000000000E-002   -7.028519666964467E-039
 -3.300000000000000E-002   -1.002710441531546E-038
 -3.290000000000000E-002   -1.316695909707481E-038
 -3.280000000000000E-002   -1.585008900848211E-038
 -3.270000000000000E-002   -1.723247439665549E-038
 -3.260000000000000E-002   -1.633798038693405E-038
 -3.250000000000000E-002   -1.231088166000849E-038
 -3.240000000000000E-002   -4.812791390877589E-039
 -3.230000000000000E-002    5.497387397560448E-039
 -3.220000000000000E-002    1.657309436235257E-038
 -3.210000000000000E-002    2.500320933387788E-038
 -3.200000000000000E-002    2.694021703502130E-038
 -3.190000000000000E-002    2.055901214175427E-038
 -3.180000000000000E-002    1.068484118577074E-038
 -3.170000000000000E-002    1.600657352684851E-038
 -3.160000000000000E-002    7.870043200644324E-038
 -3.150000000000000E-002    2.752256094870002E-037
 -3.140000000000000E-002    7.254707456677218E-037
 -3.130000000000000E-002    1.595444465457682E-036
 -3.120000000000000E-002    3.086618594756270E-036
 -3.110000000000000E-002    5.403432732319358E-036
 -3.100000000000000E-002    8.690087093771592E-036
 -3.090000000000000E-002    1.292962552753354E-035
 -3.080000000000000E-002    1.780300873129295E-035
 -3.070000000000000E-002    2.251403006685357E-035
 -3.060000000000000E-002    2.559665093956496E-035
 -3.050000000000000E-002    2.473320365731558E-035
 -3.040000000000000E-002    1.662192448464969E-035
 -3.030000000000000E-002   -3.063664013376049E-036
 -3.020000000000000E-002   -3.958498116272643E-035
 -3.010000000000000E-002   -9.889391960102597E-035
 -3.000000000000000E-002   -1.872266555789209E-034
 -2.990000000000000E-002   -3.105382724077177E-034
 -2.980000000000000E-002   -4.737571430422633E-034
 -2.970000000000000E-002   -6.797499625873501E-034
 -2.960000000000000E-002   -9.277054127093248E-034
 -2.950000000000000E-002   -1.210333887400243E-033
 -2.940000000000000E-002   -1.508871624541047E-033
 -2.930000000000000E-002   -1.784428534708178E-033
 -2.920000000000000E-002   -1.963931112915113E-033
 -2.910000000000000E-002   -1.919040296230595E-033
 -2.900000000000000E-002   -1.437458381811320E-033
 -2.890000000000000E-002   -1.884750128910709E-034
 -2.880000000000000E-002    2.311137218192618E-033
 -2.870000000000000E-002    6.718093635539518E-033
 -2.860000000000000E-002    1.384911513396937E-032
 -2.850000000000000E-002    2.460180168707564E-032
 -2.840000000000000E-002    3.976979533530111E-032
 -2.830000000000000E-002    5.970802032032094E-032
 -2.820000000000000E-002    8.380894879942849E-032
 -2.810000000000000E-002    1.097721467536553E-031
 -2.800000000000000E-002    1.326932967229375E-031
 -2.790000000000000E-002    1.440705878002579E-031
 -2.780000000000000E-002    1.309272346671210E-031
 -2.770000000000000E-002    7.537498633730383E-032
 -2.760000000000000E-002   -4.492293280465479E-032
 -2.750000000000000E-002   -2.548158272836161E-031
 -2.740000000000000E-002   -5.776302027314875E-031
 -2.730000000000000E-002   -1.028474756939037E-030
 -2.720000000000000E-002   -1.604572830426601E-030
 -2.710000000000000E-002   -2.272799146707215E-030
 -2.700000000000000E-002   -2.955369874214288E-030
 -2.690000000000000E-002   -3.515688776778349E-030
 -2.680000000000000E-002   -3.747621199606473E-030
 -2.670000000000000E-002   -3.372787247446029E-030
 -2.660000000000000E-002   -2.051585711057704E-030
 -2.650000000000000E-002    5.858050658048112E-031
 -2.640000000000000E-002    4.882715826385790E-030
 -2.630000000000000E-002    1.106982427430657E-029
 -2.620000000000000E-002    1.914978339735991E-029
 -2.610000000000000E-002    2.875903561496411E-029
 -2.600000000000000E-002    3.902136458034865E-029
 -2.590000000000000E-002    4.841751308717918E-029
 -2.580000000000000E-002    5.470512242369880E-029
 -2.570000000000000E-002    5.493165641586669E-029
 -2.560000000000000E-002    4.558725608026419E-029
 -2.550000000000000E-002    2.294181753603671E-029
 -2.540000000000000E-002   -1.640196491175549E-029
 -2.530000000000000E-002   -7.473257955823157E-029
 -2.520000000000000E-002   -1.522616054013327E-028
 -2.510000000000000E-002   -2.460441270215214E-028
 -2.500000000000000E-002   -3.489265876477606E-028
 -2.490000000000000E-002   -4.487193738830883E-028
 -2.480000000000000E-002   -5.278403490835953E-028
 -2.470000000000000E-002   -5.637020164037506E-028
 -2.460000000000000E-002   -5.301021406905666E-028
 -2.450000000000000E-002   -3.998156991816624E-028
 -2.440000000000000E-002   -1.484618488752708E-028
 -2.430000000000000E-002    2.404655030183453E-028
 -2.420000000000000E-002    7.697558279124168E-028
 -2.410000000000000E-002    1.422452369482872E-027
 -2.400000000000000E-002    2.156526151589139E-027
 -2.390000000000000E-002    2.901358314936057E-027
 -2.380000000000000E-002    3.557245255187610E-027
 -2.370000000000000E-002    3.999072132803903E-027
 -2.360000000000000E-002    4.085036452089216E-027
 -2.350000000000000E-002    3.670776585422966E-027
 -2.340000000000000E-002    2.628533241402586E-027
 -2.330000000000000E-002    8.700487109318091E-028
 -2.320000000000000E-002   -1.629067482397879E-027
 -2.310000000000000E-002   -4.806679996481748E-027
 -2.300000000000000E-002   -8.496981230221486E-027
 -2.290000000000000E-002   -1.242283827088858E-026
 -2.280000000000000E-002   -1.620118156095637E-026
 -2.270000000000000E-002   -1.936379437905261E-026
 -2.260000000000000E-002   -2.139400980190105E-026
 -2.250000000000000E-002   -2.177736203392794E-026
 -2.240000000000000E-002   -2.006150401721630E-026
 -2.230000000000000E-002   -1.591820024838142E-026
 -2.220000000000000E-002   -9.198321605485305E-027
 -2.210000000000000E-002    2.974300539983191E-029
 -2.200000000000000E-002    1.146667337544358E-026
 -2.190000000000000E-002    2.459898447571639E-026
 -2.180000000000000E-002    3.874600052710158E-026
 -2.170000000000000E-002    5.313047503283523E-026
 -2.160000000000000E-002    6.695924506325517E-026
 -2.150000000000000E-002    7.949412629562270E-026
 -2.140000000000000E-002    9.008997113394477E-026
 -2.130000000000000E-002    9.817744520181434E-026
 -2.120000000000000E-002    1.031748072968014E-025
 -2.110000000000000E-002    1.043259854844670E-025
 -2.100000000000000E-002    1.004809390686395E-025
 -2.090000000000000E-002    8.985727545371721E-026
 -2.080000000000000E-002    6.984554806429249E-026
 -2.070000000000000E-002    3.693978554467311E-026
 -2.060000000000000E-002   -1.311556393043028E-026
 -2.050000000000000E-002   -8.487758630155047E-026
 -2.040000000000000E-002   -1.823972819991728E-025
 -2.030000000000000E-002   -3.080434166268392E-025
 -2.020000000000000E-002   -4.610191184129065E-025
 -2.010000000000000E-002   -6.357190952266428E-025
 -2.000000000000000E-002   -8.201666921721250E-025
 -1.990000000000000E-002   -9.948511257349028E-025
 -1.980000000000000E-002   -1.132337896856368E-024
 -1.970000000000000E-002   -1.198030071380284E-024
 -1.960000000000000E-002   -1.152397780482633E-024
 -1.950000000000000E-002   -9.548590014648105E-025
 -1.940000000000000E-002   -5.692823517886898E-025
 -1.930000000000000E-002    2.918962027092873E-026
 -1.920000000000000E-002    8.466093457186609E-025
 -1.910000000000000E-002    1.862901140684791E-024
 -1.900000000000000E-002    3.025906527699257E-024
 -1.890000000000000E-002    4.248091346781488E-024
 -1.880000000000000E-002    5.407164946670731E-024
 -1.870000000000000E-002    6.351618658912284E-024
 -1.860000000000000E-002    6.911719328661347E-024
 -1.850000000000000E-002    6.915820122454917E-024
 -1.840000000000000E-002    6.211030219359246E-024
 -1.830000000000000E-002    4.686419796462396E-024
 -1.820000000000000E-002    2.296136672361586E-024
 -1.810000000000000E-002   -9.207463649851329E-025
 -1.800000000000000E-002   -4.827048197933714E-024
 -1.790000000000000E-002   -9.184066773570170E-024
 -1.780000000000000E-002   -1.366023171630467E-023
 -1.770000000000000E-002   -1.785279299646517E-023
 -1.760000000000000E-002   -2.132174226714647E-023
 -1.750000000000000E-002   -2.363323096480719E-023
 -1.740000000000000E-002   -2.440786499912954E-023
 -1.730000000000000E-002   -2.336776206411900E-023
 -1.720000000000000E-002   -2.037552262720310E-023
 -1.710000000000000E-002   -1.545849493542022E-023
 -1.700000000000000E-002   -8.813147871012254E-024
 -1.690000000000000E-002   -7.868373731551550E-025
 -1.680000000000000E-002    8.162250308733632E-024
 -1.670000000000000E-002    1.752234424510832E-023
 -1.660000000000000E-002    2.679405606396122E-023
 -1.650000000000000E-002    3.555370120893727E-023
 -1.640000000000000E-002    4.350119917785130E-023
 -1.630000000000000E-002    5.048048279879965E-023
 -1.620000000000000E-002    5.646355995639239E-023
 -1.610000000000000E-002    6.149481290493616E-023
 -1.600000000000000E-002    6.559956545791383E-023
 -1.590000000000000E-002    6.866913172518134E-023
 -1.580000000000000E-002    7.034236826264959E-023
 -1.570000000000000E-002    6.990950150540097E-023
 -1.560000000000000E-002    6.626628265321702E-023
 -1.550000000000000E-002    5.794398979797458E-023
 -1.540000000000000E-002    4.323297325354529E-023
 -1.530000000000000E-002    2.040452878790244E-023
 -1.520000000000000E-002   -1.198090121946693E-023
 -1.510000000000000E-002   -5.470979780792329E-023
 -1.500000000000000E-002   -1.075436291011907E-022
 -1.490000000000000E-002   -1.688992198461253E-022
 -1.480000000000000E-002   -2.356466166697679E-022
 -1.470000000000000E-002   -3.030838030559506E-022
 -1.460000000000000E-002   -3.651305694545839E-022
 -1.450000000000000E-002   -4.147558496962057E-022
 -1.440000000000000E-002   -4.446169395455694E-022
 -1.430000000000000E-002   -4.478501011573678E-022
 -1.420000000000000E-002   -4.189156792848825E-022
 -1.410000000000000E-002   -3.543766953402797E-022
 -1.400000000000000E-002   -2.534805718792934E-022
 -1.390000000000000E-002   -1.184284997348546E-022
 -1.380000000000000E-002    4.574605808687098E-023
 -1.370000000000000E-002    2.317079208637724E-022
 -1.360000000000000E-002    4.307043701262987E-022
 -1.350000000000000E-002    6.336682112276542E-022
 -1.340000000000000E-002    8.323388421689058E-022
 -1.330000000000000E-002    1.020155469019022E-021
 -1.320000000000000E-002    1.192675912722879E-021
 -1.310000000000000E-002    1.347320734828477E-021
 -1.300000000000000E-002    1.482339216805639E-021
 -1.290000000000000E-002    1.595038135170742E-021
 -1.280000000000000E-002    1.679488148914703E-021
 -1.270000000000000E-002    1.724094101813333E-021
 -1.260000000000000E-002    1.709566947370499E-021
 -1.250000000000000E-002    1.607912856297394E-021
 -1.240000000000000E-002    1.383045534081185E-021
 -1.230000000000000E-002    9.934978290998820E-022
 -1.220000000000000E-002    3.974599634129756E-022
 -1.210000000000000E-002   -4.399865776806415E-022
 -1.200000000000000E-002   -1.537996228962421E-021
 -1.190000000000000E-002   -2.890442043820678E-021
 -1.180000000000000E-002   -4.457130805381022E-021
 -1.170000000000000E-002   -6.157361963761372E-021
 -1.160000000000000E-002   -7.867480760993456E-021
 -1.150000000000000E-002   -9.423836678119473E-021
 -1.140000000000000E-002   -1.063205767600109E-020
 -1.130000000000000E-002   -1.128277513358827E-020
 -1.120000000000000E-002   -1.117299996912540E-020
 -1.110000000000000E-002   -1.013132758525735E-020
 -1.100000000000000E-002   -8.044220408000814E-021
 -1.090000000000000E-002   -4.879947706163428E-021
 -1.080000000000000E-002   -7.064759139402471E-022
 -1.070000000000000E-002    4.300126496942923E-021
 -1.060000000000000E-002    9.859389584928226E-021
 -1.050000000000000E-002    1.560347210804263E-020
 -1.040000000000000E-002    2.110694485131951E-020
 -1.030000000000000E-002    2.592676144568007E-020
 -1.020000000000000E-002    2.964792049593207E-020
 -1.010000000000000E-002    3.192884306596900E-020
 -1.000000000000000E-002    3.253971530958352E-020
 -9.899999999999999E-003    3.138733475181733E-020
 -9.800000000000000E-003    2.852126128456059E-020
 -9.699999999999999E-003    2.411858326421608E-020
 -9.599999999999999E-003    1.844784423530224E-020
 -9.500000000000000E-003    1.181639554504685E-020
 -9.399999999999999E-003    4.509094991320210E-021
 -9.299999999999999E-003   -3.270945545134112E-021
 -9.200000000000000E-003   -1.144735353149391E-020
 -9.099999999999999E-003   -2.008939293447001E-020
 -8.999999999999999E-003   -2.939563334611444E-020
 -8.900000000000000E-003   -3.963784753946272E-020
 -8.799999999999999E-003   -5.106713372524393E-020
 -8.699999999999999E-003   -6.379154942077414E-020
 -8.600000000000000E-003   -7.764196009439796E-020
 -8.499999999999999E-003   -9.204853516224823E-020
 -8.399999999999999E-003   -1.059536795998825E-019
 -8.300000000000000E-003   -1.177867515986153E-019
 -8.199999999999999E-003   -1.255210529555866E-019
 -8.100000000000000E-003   -1.268245366783153E-019
 -8.000000000000000E-003   -1.193027183798198E-019
 -7.899999999999999E-003   -1.008172308510689E-019
 -7.800000000000000E-003   -6.984788927524555E-020
 -7.699999999999999E-003   -2.585296617486043E-020
 -7.599999999999999E-003    3.042650752066660E-020
 -7.499999999999999E-003    9.677385270292297E-020
 -7.399999999999999E-003    1.694646926901821E-019
 -7.299999999999999E-003    2.434292119927356E-019
 -7.199999999999999E-003    3.126189124479167E-019
 -7.100000000000000E-003    3.705595671009908E-019
 -6.999999999999999E-003    4.110404476068457E-019
 -6.899999999999999E-003    4.288621140607588E-019
 -6.800000000000000E-003    4.205438889711962E-019
 -6.699999999999999E-003    3.848829429899846E-019
 -6.599999999999999E-003    3.232634033767801E-019
 -6.499999999999999E-003    2.396366323809939E-019
 -6.399999999999999E-003    1.401329474267622E-019
 -6.299999999999999E-003    3.231630951989752E-020
 -6.199999999999999E-003   -7.584899285468461E-020
 -6.100000000000000E-003   -1.771942954407369E-019
 -5.999999999999999E-003   -2.665349125577740E-019
 -5.899999999999999E-003   -3.416536445130573E-019
 -5.800000000000000E-003   -4.038848506740951E-019
 -5.699999999999999E-003   -4.581345351503897E-019
 -5.599999999999999E-003   -5.122352740009928E-019
 -5.499999999999999E-003   -5.756237049649177E-019
 -5.399999999999999E-003   -6.574343795167160E-019
 -5.299999999999999E-003   -7.642135934957067E-019
 -5.199999999999999E-003   -8.975518401830036E-019
 -5.099999999999999E-003   -1.052003292001726E-018
 -4.999999999999999E-003   -1.213682246659700E-018
 -4.899999999999999E-003   -1.359895224804344E-018
 -4.799999999999999E-003   -1.460079275780057E-018
 -4.699999999999999E-003   -1.478170830987177E-018
 -4.599999999999999E-003   -1.376346603687037E-018
 -4.499999999999999E-003   -1.119869713330889E-018
 -4.399999999999999E-003   -6.825771261769298E-019
 -4.299999999999999E-003   -5.237764002055949E-020
 -4.199999999999999E-003    7.639693471171485E-019
 -4.099999999999999E-003    1.737539631887779E-018
 -3.999999999999999E-003    2.816052853674374E-018
 -3.899999999999999E-003    3.925274837098659E-018
 -3.799999999999999E-003    4.973215438531203E-018
 -3.699999999999999E-003    5.856981949883296E-018
 -3.599999999999999E-003    6.471802199222660E-018
 -3.499999999999999E-003    6.721394493937567E-018
 -3.399999999999999E-003    6.528610562452435E-018
 -3.299999999999999E-003    5.845138889321933E-018
 -3.199999999999999E-003    4.659057815772011E-018
 -3.099999999999999E-003    2.999200068818866E-018
 -2.999999999999999E-003    9.356071315431130E-019
 -2.899999999999999E-003   -1.424213514146062E-018
 -2.799999999999999E-003   -3.942998762487076E-018
 -2.699999999999999E-003   -6.464679733838265E-018
 -2.599999999999999E-003   -8.827378195918983E-018
 -2.499999999999999E-003   -1.087697483160472E-017
 -2.399999999999999E-003   -1.247962901718192E-017
 -2.299999999999999E-003   -1.353175576963565E-017
 -2.199999999999999E-003   -1.396627467199738E-017
 -2.099999999999999E-003   -1.375446050375062E-017
 -1.999999999999999E-003   -1.290337586457002E-017
 -1.899999999999999E-003   -1.144952776918276E-017
 -1.799999999999999E-003   -9.449997723541811E-018
 -1.699999999999999E-003   -6.972751617002857E-018
 -1.599999999999999E-003   -4.088012344889305E-018
 -1.499999999999999E-003   -8.624733901636119E-019
 -1.399999999999999E-003    2.642309602030291E-018
 -1.299999999999999E-003    6.366692924336649E-018
 -1.199999999999999E-003    1.024516399618885E-017
 -1.099999999999999E-003    1.419520482143485E-017
 -9.999999999999989E-004    1.810490760471826E-017
 -8.999999999999990E-004    2.182206251708126E-017
 -7.999999999999990E-004    2.514770624863771E-017
 -6.999999999999989E-004    2.783690201521192E-017
 -5.999999999999990E-004    2.960880680116917E-017
 -4.999999999999989E-004    3.016692154168108E-017
 -3.999999999999989E-004    2.922888714388550E-017
 -2.999999999999989E-004    2.656354820992426E-017
 -1.999999999999989E-004    2.203140378475011E-017
 -9.999999999999892E-005    1.562331504474085E-017
  1.084202172485504E-018    7.491646120443328E-018
  1.000000000000011E-004   -2.031948856723510E-018
  2.000000000000011E-004   -1.243698108726675E-017
  3.000000000000011E-004   -2.305603292248263E-017
  4.000000000000011E-004   -3.310891723646329E-017
  5.000000000000011E-004   -4.176708029759036E-017
  6.000000000000011E-004   -4.823330224372641E-017
  7.000000000000011E-004   -5.182911570484592E-017
  8.000000000000011E-004   -5.208036671777369E-017
  9.000000000000012E-004   -4.879043065179786E-017
  1.000000000000001E-003   -4.209079281967085E-017
  1.100000000000001E-003   -3.246043688624872E-017
  1.200000000000001E-003   -2.070824704908052E-017
  1.300000000000001E-003   -7.916549541952773E-018
  1.400000000000001E-003    4.651605243147157E-018
  1.500000000000001E-003    1.567432068149978E-017
  1.600000000000001E-003    2.391072947825926E-017
  1.700000000000001E-003    2.834469657446376E-017
  1.800000000000001E-003    2.831660387339359E-017
  1.900000000000001E-003    2.362780912814741E-017
  2.000000000000001E-003    1.460424635501656E-017
  2.100000000000001E-003    2.109546985872413E-018
  2.200000000000001E-003   -1.249706335157809E-017
  2.300000000000001E-003   -2.745698574029662E-017
  2.400000000000001E-003   -4.075571037672340E-017
  2.500000000000001E-003   -5.030148194255817E-017
  2.600000000000001E-003   -5.412311573315854E-017
  2.700000000000001E-003   -5.056883326603107E-017
  2.800000000000001E-003   -3.848775837316477E-017
  2.900000000000001E-003   -1.737739826256748E-017
  3.000000000000001E-003    1.251580852711262E-017
  3.100000000000001E-003    5.015130468980871E-017
  3.200000000000001E-003    9.370773952506900E-017
  3.300000000000001E-003    1.406525391596414E-016
  3.400000000000001E-003    1.878615564711450E-016
  3.500000000000001E-003    2.317790415022616E-016
  3.600000000000001E-003    2.686073637080825E-016
  3.700000000000001E-003    2.945155709370496E-016
  3.800000000000001E-003    3.058575531718061E-016
  3.900000000000001E-003    2.993922437899956E-016
  4.000000000000001E-003    2.725012031333156E-016
  4.100000000000001E-003    2.233998330660737E-016
  4.200000000000001E-003    1.513388239512852E-016
  4.300000000000001E-003    5.679118889820649E-017
  4.400000000000001E-003   -5.838295370805985E-017
  4.500000000000001E-003   -1.908061015464262E-016
  4.600000000000002E-003   -3.355045224677038E-016
  4.700000000000001E-003   -4.859023427046630E-016
  4.800000000000001E-003   -6.339133757144232E-016
  4.900000000000002E-003   -7.701530438665769E-016
  5.000000000000001E-003   -8.842920257170980E-016
  5.100000000000001E-003   -9.655606623576383E-016
  5.200000000000001E-003   -1.003403191802162E-015
  5.300000000000002E-003   -9.882618664589701E-016
  5.400000000000001E-003   -9.124530336029290E-016
  5.500000000000001E-003   -7.710766767999296E-016
  5.600000000000002E-003   -5.628851943847743E-016
  5.700000000000001E-003   -2.910230533898757E-016
  5.800000000000001E-003    3.645542912440972E-017
  5.900000000000002E-003    4.063789225676622E-016
  6.000000000000001E-003    8.006367740711952E-016
  6.100000000000001E-003    1.196792810463529E-015
  6.200000000000002E-003    1.569150632677309E-015
  6.300000000000002E-003    1.890247558318138E-015
  6.400000000000001E-003    2.132709808641380E-015
  6.500000000000001E-003    2.271357251030360E-015
  6.600000000000002E-003    2.285412322416659E-015
  6.700000000000001E-003    2.160633460976210E-015
  6.800000000000001E-003    1.891186339455890E-015
  6.900000000000002E-003    1.481060073724276E-015
  7.000000000000001E-003    9.448591591625937E-016
  7.100000000000001E-003    3.078365841392712E-016
  7.200000000000002E-003   -3.949167185405790E-016
  7.300000000000002E-003   -1.120148006303981E-015
  7.400000000000001E-003   -1.818936201429557E-015
  7.500000000000001E-003   -2.439884150977090E-015
  7.600000000000002E-003   -2.932824289025658E-015
  7.700000000000001E-003   -3.252797534534028E-015
  7.800000000000001E-003   -3.364021409485616E-015
  7.900000000000001E-003   -3.243541364647634E-015
  8.000000000000002E-003   -2.884257964225942E-015
  8.100000000000001E-003   -2.297046598849548E-015
  8.200000000000001E-003   -1.511718194281815E-015
  8.300000000000002E-003   -5.766434560547442E-016
  8.400000000000001E-003    4.430633627895386E-016
  8.500000000000002E-003    1.468824516182541E-015
  8.600000000000002E-003    2.413245178056751E-015
  8.700000000000001E-003    3.185953929284774E-015
  8.800000000000002E-003    3.700345850835857E-015
  8.900000000000002E-003    3.880857693486307E-015
  9.000000000000001E-003    3.670319237174520E-015
  9.100000000000002E-003    3.036876941364790E-015
  9.200000000000002E-003    1.979945744596467E-015
  9.300000000000001E-003    5.346200548879983E-016
  9.400000000000002E-003   -1.225952032392655E-015
  9.500000000000001E-003   -3.190714528950865E-015
  9.600000000000001E-003   -5.213706519464068E-015
  9.700000000000002E-003   -7.120140400842698E-015
  9.800000000000001E-003   -8.715592775983183E-015
  9.900000000000001E-003   -9.798096587340816E-015
  1.000000000000000E-002   -1.017272704266712E-014
  1.010000000000000E-002   -9.668004277755949E-015
  1.020000000000000E-002   -8.153180989310525E-015
  1.030000000000000E-002   -5.555288485793439E-015
  1.040000000000000E-002   -1.874622421103403E-015
  1.050000000000000E-002    2.802736406846270E-015
  1.060000000000000E-002    8.296827895599287E-015
  1.070000000000000E-002    1.433141295737485E-014
  1.080000000000000E-002    2.053847464854259E-014
  1.090000000000000E-002    2.647033532822125E-014
  1.100000000000000E-002    3.161979592198446E-014
  1.110000000000000E-002    3.544803097237044E-014
  1.120000000000000E-002    3.741944051333792E-014
  1.130000000000000E-002    3.704194952588708E-014
  1.140000000000000E-002    3.391064071305041E-014
  1.150000000000000E-002    2.775197302581784E-014
  1.160000000000000E-002    1.846541564622362E-014
  1.170000000000000E-002    6.159026954240785E-015
  1.180000000000000E-002   -8.824602979256691E-015
  1.190000000000000E-002   -2.589536453132365E-014
  1.200000000000000E-002   -4.421849371490210E-014
  1.210000000000000E-002   -6.273554302041252E-014
  1.220000000000000E-002   -8.020449877221256E-014
  1.230000000000000E-002   -9.525896363515480E-014
  1.240000000000000E-002   -1.064850064771866E-013
  1.250000000000000E-002   -1.125126402678137E-013
  1.260000000000000E-002   -1.121175363555707E-013
  1.270000000000000E-002   -1.043272339955535E-013
  1.280000000000000E-002   -8.852493528254851E-014
  1.290000000000000E-002   -6.454343161584947E-014
  1.300000000000000E-002   -3.274100775253679E-014
  1.310000000000000E-002    5.948237965935640E-015
  1.320000000000000E-002    4.999645948076652E-014
  1.330000000000000E-002    9.730242226712407E-014
  1.340000000000000E-002    1.452533836575540E-013
  1.350000000000000E-002    1.908301228214073E-013
  1.360000000000000E-002    2.307532218582874E-013
  1.370000000000000E-002    2.616660905754620E-013
  1.380000000000000E-002    2.803472364172067E-013
  1.390000000000000E-002    2.839407922574788E-013
  1.400000000000000E-002    2.701924159159379E-013
  1.410000000000000E-002    2.376750807326056E-013
  1.420000000000000E-002    1.859887234929910E-013
  1.430000000000000E-002    1.159169964811082E-013
  1.440000000000000E-002    2.952536623393646E-014
  1.450000000000000E-002   -6.981276054893218E-014
  1.460000000000000E-002   -1.774725497319402E-013
  1.470000000000000E-002   -2.877230522127048E-013
  1.480000000000000E-002   -3.939620931140766E-013
  1.490000000000000E-002   -4.890356518034894E-013
  1.500000000000000E-002   -5.656312067654218E-013
  1.510000000000000E-002   -6.167272495774833E-013
  1.520000000000000E-002   -6.360763833421667E-013
  1.530000000000000E-002   -6.186941415953625E-013
  1.540000000000000E-002   -5.613225752013951E-013
  1.550000000000000E-002   -4.628350887026264E-013
  1.560000000000000E-002   -3.245508667349640E-013
  1.570000000000000E-002   -1.504269383262901E-013
  1.580000000000000E-002    5.289614584439961E-014
  1.590000000000000E-002    2.762156893246725E-013
  1.600000000000000E-002    5.080637279521445E-013
  1.610000000000000E-002    7.351809133797849E-013
  1.620000000000000E-002    9.431540291755397E-013
  1.630000000000000E-002    1.117195227628932E-012
  1.640000000000000E-002    1.243025969281334E-012
  1.650000000000000E-002    1.307822731975416E-012
  1.660000000000000E-002    1.301167542869883E-012
  1.670000000000000E-002    1.215945100640353E-012
  1.680000000000000E-002    1.049124132267057E-012
  1.690000000000000E-002    8.023597280378697E-013
  1.700000000000000E-002    4.823619731466473E-013
  1.710000000000000E-002    1.009840827495584E-013
  1.720000000000000E-002   -3.250037912332543E-013
  1.730000000000000E-002   -7.744713268778847E-013
  1.740000000000000E-002   -1.222812086656433E-012
  1.750000000000000E-002   -1.643130200080241E-012
  1.760000000000000E-002   -2.007683795064223E-012
  1.770000000000000E-002   -2.289516586519638E-012
  1.780000000000000E-002   -2.464194809273881E-012
  1.790000000000000E-002   -2.511545017351613E-012
  1.800000000000000E-002   -2.417285069468032E-012
  1.810000000000000E-002   -2.174433594582825E-012
  1.820000000000000E-002   -1.784388786319598E-012
  1.830000000000000E-002   -1.257575118479140E-012
  1.840000000000000E-002   -6.135812177887654E-013
  1.850000000000000E-002    1.192690688315647E-013
  1.860000000000000E-002    9.049326053794055E-013
  1.870000000000000E-002    1.701238833712625E-012