 -4.000000000000000E-002    0.000000000000000E+000
 -3.990000000000000E-002    0.000000000000000E+000
 -3.980000000000000E-002    0.000000000000000E+000
 -3.970000000000000E-002    3.301216663990319E-015
 -3.960000000000000E-002    2.162850978970112E-014
 -3.950000000000000E-002    7.930997913137499E-014
 -3.940000000000000E-002    2.132989370021000E-013
 -3.930000000000000E-002    4.664262868972370E-013
 -3.920000000000000E-002    8.728778745868488E-013
 -3.910000000000000E-002    1.437177045751478E-012
 -3.900000000000000E-002    2.110387771855727E-012
 -3.890000000000000E-002    2.769203705331440E-012
 -3.880000000000000E-002    3.204487140039622E-012
 -3.870000000000000E-002    3.125271126047538E-012
 -3.860000000000000E-002    2.182165507180705E-012
 -3.850000000000000E-002    1.075250303625754E-014
 -3.840000000000000E-002   -3.708478379000773E-012
 -3.830000000000000E-002   -9.181071261902091E-012
 -3.820000000000000E-002   -1.643084071828444E-011
 -3.810000000000000E-002   -2.524517432946152E-011
 -3.800000000000000E-002   -3.514438677949910E-011
 -3.790000000000000E-002   -4.538318605946418E-011
 -3.780000000000000E-002   -5.498760316210017E-011
 -3.770000000000000E-002   -6.282504562829503E-011
 -3.760000000000000E-002   -6.769954407800451E-011
 -3.750000000000000E-002   -6.845979185341889E-011
 -3.740000000000000E-002   -6.410512189877098E-011
 -3.730000000000000E-002   -5.387498106439287E-011
 -3.720000000000000E-002   -3.731032087900184E-011
 -3.710000000000000E-002   -1.428057240344004E-011
 -3.700000000000000E-002    1.502361978245544E-011
 -3.690000000000000E-002    5.012519893909629E-011
 -3.680000000000000E-002    9.031124680146224E-011
 -3.670000000000000E-002    1.346845461384469E-010
 -3.660000000000000E-002    1.822019054051976E-010
 -3.650000000000000E-002    2.316881664220641E-010
 -3.640000000000000E-002    2.818209272053585E-010
 -3.630000000000000E-002    3.310885356866240E-010
 -3.620000000000000E-002    3.777302921780749E-010
 -3.610000000000000E-002    4.196745263026280E-010
 -3.600000000000000E-002    4.544912735157741E-010
 -3.590000000000000E-002    4.793766038392856E-010
 -3.580000000000000E-002    4.911801861677944E-010
 -3.570000000000000E-002    4.864809107757185E-010
 -3.560000000000000E-002    4.617067676787780E-010
 -3.550000000000000E-002    4.132885502863359E-010
 -3.540000000000000E-002    3.378315967731218E-010
 -3.530000000000000E-002    2.322898773020662E-010
 -3.520000000000000E-002    9.412977246615040E-011
 -3.510000000000000E-002   -7.851906328777517E-011
 -3.500000000000000E-002   -2.867198872486682E-010
 -3.490000000000000E-002   -5.305749160545258E-010
 -3.480000000000000E-002   -8.090379180573808E-010
 -3.470000000000000E-002   -1.119668506828439E-009
 -3.460000000000000E-002   -1.458311759599963E-009
 -3.450000000000000E-002   -1.818701333525783E-009
 -3.440000000000000E-002   -2.192009338596893E-009
 -3.430000000000000E-002   -2.566392834887062E-009
 -3.420000000000000E-002   -2.926612764347389E-009
 -3.410000000000000E-002   -3.253823960235889E-009
 -3.400000000000000E-002   -3.525640645525075E-009
 -3.390000000000000E-002   -3.716574712414682E-009
 -3.380000000000000E-002   -3.798918801507903E-009
 -3.370000000000000E-002   -3.744098356078007E-009
 -3.360000000000000E-002   -3.524458932621191E-009
 -3.350000000000000E-002   -3.115391657464188E-009
 -3.340000000000000E-002   -2.497629856795945E-009
 -3.330000000000000E-002   -1.659508292941622E-009
 -3.320000000000000E-002   -5.989450179844251E-010
 -3.310000000000000E-002    6.750904565748686E-010
 -3.300000000000000E-002    2.141817641890137E-009
 -3.290000000000000E-002    3.768721734866903E-009
 -3.280000000000000E-002    5.512488141389832E-009
 -3.270000000000000E-002    7.320729130862461E-009
 -3.260000000000000E-002    9.134306351473652E-009
 -3.250000000000000E-002    1.088998516304272E-008
 -3.240000000000000E-002    1.252310333353376E-008
 -3.230000000000000E-002    1.396992439814223E-008
 -3.220000000000000E-002    1.516942091799427E-008
 -3.210000000000000E-002    1.606430438502773E-008
 -3.200000000000000E-002    1.660128493147892E-008
 -3.190000000000000E-002    1.673067409008493E-008
 -3.180000000000000E-002    1.640563107293883E-008
 -3.170000000000000E-002    1.558142729081441E-008
 -3.160000000000000E-002    1.421521515330782E-008
 -3.150000000000000E-002    1.226674555081075E-008
 -3.140000000000000E-002    9.700394259653100E-009
 -3.130000000000000E-002    6.488695062452938E-009
 -3.120000000000000E-002    2.617326276331818E-009
 -3.110000000000000E-002   -1.908717841084624E-009
 -3.100000000000000E-002   -7.058390974015100E-009
 -3.090000000000000E-002   -1.276802500901013E-008
 -3.080000000000000E-002   -1.893587819977980E-008
 -3.070000000000000E-002   -2.541872907748117E-008
 -3.060000000000000E-002   -3.203136701172360E-008
 -3.050000000000000E-002   -3.854960562134664E-008
 -3.040000000000000E-002   -4.471707289628534E-008
 -3.030000000000000E-002   -5.025568204528418E-008
 -3.020000000000000E-002   -5.487920868286504E-008
 -3.010000000000000E-002   -5.830903724139270E-008
 -3.000000000000000E-002   -6.029077897185605E-008
 -2.990000000000000E-002   -6.061035856833879E-008
 -2.980000000000000E-002   -5.910807124706595E-008
 -2.970000000000000E-002   -5.568935210800707E-008
 -2.960000000000000E-002   -5.033122751300402E-008
 -2.950000000000000E-002   -4.308395366547026E-008
 -2.940000000000000E-002   -3.406779147441402E-008
 -2.930000000000000E-002   -2.346541547372629E-008
 -2.920000000000000E-002   -1.151092301095919E-008
 -2.910000000000000E-002    1.523326409706576E-009
 -2.900000000000000E-002    1.534052257169004E-008
 -2.890000000000000E-002    2.963253245844690E-008
 -2.880000000000000E-002    4.409108821426243E-008
 -2.870000000000000E-002    5.841620504268664E-008
 -2.860000000000000E-002    7.232146325620285E-008
 -2.850000000000000E-002    8.553625193544204E-008
 -2.840000000000000E-002    9.780555686750246E-008
 -2.830000000000000E-002    1.088881799221508E-007
 -2.820000000000000E-002    1.185545325078981E-007
 -2.810000000000000E-002    1.265850588508591E-007
 -2.800000000000000E-002    1.327702140224338E-007
 -2.790000000000000E-002    1.369126534185431E-007
 -2.780000000000000E-002    1.388317089110563E-007
 -2.770000000000000E-002    1.383699420402340E-007
 -2.760000000000000E-002    1.354011491876862E-007
 -2.750000000000000E-002    1.298387537828642E-007
 -2.740000000000000E-002    1.216436106271630E-007
 -2.730000000000000E-002    1.108302679072043E-007
 -2.720000000000000E-002    9.747085481467999E-008
 -2.710000000000000E-002    8.169628704411364E-008
 -2.700000000000000E-002    6.369490306199753E-008
 -2.690000000000000E-002    4.370895353296393E-008
 -2.680000000000000E-002    2.202991551083623E-008
 -2.670000000000000E-002   -1.006451008225543E-009
 -2.660000000000000E-002   -2.502426262824513E-008
 -2.650000000000000E-002   -4.961016269085395E-008
 -2.640000000000000E-002   -7.431404976211070E-008
 -2.630000000000000E-002   -9.864826325515197E-008
 -2.620000000000000E-002   -1.220858789143477E-007
 -2.610000000000000E-002   -1.440592645113028E-007
 -2.600000000000000E-002   -1.639606141390527E-007
 -2.590000000000000E-002   -1.811458974159169E-007
 -2.580000000000000E-002   -1.949434725724857E-007
 -2.570000000000000E-002   -2.046680564751077E-007
 -2.560000000000000E-002   -2.096398559182079E-007
 -2.550000000000000E-002   -2.092077715852094E-007
 -2.540000000000000E-002   -2.027746696303693E-007
 -2.530000000000000E-002   -1.898215998405818E-007
 -2.520000000000000E-002   -1.699279188425220E-007
 -2.510000000000000E-002   -1.427836260181260E-007
 -2.500000000000000E-002   -1.081911167560107E-007
 -2.490000000000000E-002   -6.605446048566154E-008
 -2.480000000000000E-002   -1.635505271736910E-008
 -2.470000000000000E-002    4.088473136933475E-008
 -2.460000000000000E-002    1.056475548638343E-007
 -2.450000000000000E-002    1.779724080846325E-007
 -2.440000000000000E-002    2.580055062032905E-007
 -2.430000000000000E-002    3.460449546618466E-007
 -2.420000000000000E-002    4.425727992517753E-007
 -2.410000000000000E-002    5.482694818889905E-007
 -2.400000000000000E-002    6.640069508391669E-007
 -2.390000000000000E-002    7.908192062572288E-007
 -2.380000000000000E-002    9.298507799380854E-007
 -2.370000000000000E-002    1.082287614119929E-006
 -2.360000000000000E-002    1.249275032668806E-006
 -2.350000000000000E-002    1.431831782590674E-006
 -2.340000000000000E-002    1.630767831200458E-006
 -2.330000000000000E-002    1.846615384485754E-006
 -2.320000000000000E-002    2.079579842028547E-006
 -2.310000000000000E-002    2.329517727284481E-006
 -2.300000000000000E-002    2.595944516280616E-006
 -2.290000000000000E-002    2.878072354342090E-006
 -2.280000000000000E-002    3.174875099794236E-006
 -2.270000000000000E-002    3.485176258439492E-006
 -2.260000000000000E-002    3.807749524348418E-006
 -2.250000000000000E-002    4.141426834634830E-006
 -2.240000000000000E-002    4.485199329467933E-006
 -2.230000000000000E-002    4.838308793224589E-006
 -2.220000000000000E-002    5.200317071600451E-006
 -2.210000000000000E-002    5.571152072666219E-006
 -2.200000000000000E-002    5.951127180165019E-006
 -2.190000000000000E-002    6.340936776871534E-006
 -2.180000000000000E-002    6.741628931406738E-006
 -2.170000000000000E-002    7.154564947570035E-006
 -2.160000000000000E-002    7.581367031738465E-006
 -2.150000000000000E-002    8.023871873760367E-006
 -2.140000000000000E-002    8.484082190556151E-006
 -2.130000000000000E-002    8.964137253672306E-006
 -2.120000000000000E-002    9.466298146018267E-006
 -2.110000000000000E-002    9.992947428107595E-006
 -2.100000000000000E-002    1.054661184564818E-005
 -2.090000000000000E-002    1.112999512470680E-005
 -2.080000000000000E-002    1.174602849416191E-005
 -2.070000000000000E-002    1.239792304566187E-005
 -2.060000000000000E-002    1.308922959519647E-005
 -2.050000000000000E-002    1.382389305666741E-005
 -2.040000000000000E-002    1.460630503031473E-005
 -2.030000000000000E-002    1.544134774098442E-005
 -2.020000000000000E-002    1.633442723377273E-005
 -2.010000000000000E-002    1.729150048289559E-005
 -2.000000000000000E-002    1.831908884663424E-005
 -1.990000000000000E-002    1.942428696914529E-005
 -1.980000000000000E-002    2.061476188292109E-005
 -1.970000000000000E-002    2.189873600427385E-005
 -1.960000000000000E-002    2.328496912030029E-005
 -1.950000000000000E-002    2.478272787144005E-005
 -1.940000000000000E-002    2.640174230088225E-005
 -1.930000000000000E-002    2.815214891099992E-005
 -1.920000000000000E-002    3.004443085279595E-005
 -1.910000000000000E-002    3.208933755060804E-005
 -1.900000000000000E-002    3.429780715309991E-005
 -1.890000000000000E-002    3.668088080263618E-005
 -1.880000000000000E-002    3.924962195585202E-005
 -1.870000000000000E-002    4.201505441985147E-005
 -1.860000000000000E-002    4.498809681878339E-005
 -1.850000000000000E-002    4.817955652748299E-005
 -1.840000000000000E-002    5.160011047892446E-005
 -1.830000000000000E-002    5.526035833840513E-005
 -1.820000000000000E-002    5.917088850503175E-005
 -1.810000000000000E-002    6.334236081980102E-005
 -1.800000000000000E-002    6.778565654985009E-005
 -1.790000000000000E-002    7.251198329579860E-005
 -1.780000000000000E-002    7.753303343033385E-005
 -1.770000000000000E-002    8.286110451579254E-005
 -1.760000000000000E-002    8.850922061773006E-005
 -1.750000000000000E-002    9.449121021694266E-005
 -1.740000000000000E-002    1.008217419481647E-004
 -1.730000000000000E-002    1.075163509122480E-004
 -1.720000000000000E-002    1.145913837479024E-004
 -1.710000000000000E-002    1.220639486320400E-004
 -1.700000000000000E-002    1.299518242079611E-004
 -1.690000000000000E-002    1.382733572074967E-004
 -1.680000000000000E-002    1.470473690864564E-004
 -1.670000000000000E-002    1.562930739805880E-004
 -1.660000000000000E-002    1.660299989792185E-004
 -1.650000000000000E-002    1.762780027376837E-004
 -1.640000000000000E-002    1.870572722024237E-004
 -1.630000000000000E-002    1.983883925467464E-004
 -1.620000000000000E-002    2.102924426168290E-004
 -1.610000000000000E-002    2.227911793485916E-004
 -1.600000000000000E-002    2.359071640992255E-004
 -1.590000000000000E-002    2.496640146535643E-004
 -1.580000000000000E-002    2.640865175472299E-004
 -1.570000000000000E-002    2.792008867195901E-004
 -1.560000000000000E-002    2.950348960054713E-004
 -1.550000000000000E-002    3.116180454465077E-004
 -1.540000000000000E-002    3.289816831905269E-004
 -1.530000000000000E-002    3.471591323557952E-004
 -1.520000000000000E-002    3.661856941977459E-004
 -1.510000000000000E-002    3.860987487314821E-004
 -1.500000000000000E-002    4.069377692537535E-004
 -1.490000000000000E-002    4.287444426945952E-004
 -1.480000000000000E-002    4.515625215060708E-004
 -1.470000000000000E-002    4.754380406012778E-004
 -1.460000000000000E-002    5.004192713566614E-004
 -1.450000000000000E-002    5.265567655541538E-004
 -1.440000000000000E-002    5.539035010491178E-004
 -1.430000000000000E-002    5.825149023535366E-004
 -1.420000000000000E-002    6.124489845630220E-004
 -1.410000000000000E-002    6.437664143184807E-004
 -1.400000000000000E-002    6.765307379969925E-004
 -1.390000000000000E-002    7.108082554735536E-004
 -1.380000000000000E-002    7.466684260233338E-004
 -1.370000000000000E-002    7.841837392347007E-004
 -1.360000000000000E-002    8.234298552621869E-004
 -1.350000000000000E-002    8.644857506501508E-004
 -1.340000000000000E-002    9.074337144409117E-004
 -1.330000000000000E-002    9.523595599406292E-004
 -1.320000000000000E-002    9.993523270132342E-004
 -1.310000000000000E-002    1.048504656852574E-003
 -1.300000000000000E-002    1.099912671810341E-003
 -1.290000000000000E-002    1.153675861188741E-003
 -1.280000000000000E-002    1.209897385291706E-003
 -1.270000000000000E-002    1.268683889066182E-003
 -1.260000000000000E-002    1.330145498088403E-003
 -1.250000000000000E-002    1.394395992680219E-003
 -1.240000000000000E-002    1.461552996999358E-003
 -1.230000000000000E-002    1.531737645012181E-003
 -1.220000000000000E-002    1.605075032451090E-003
 -1.210000000000000E-002    1.681694333574496E-003
 -1.200000000000000E-002    1.761728923348543E-003
 -1.190000000000000E-002    1.845316292974186E-003
 -1.180000000000000E-002    1.932598541946709E-003
 -1.170000000000000E-002    2.023722200836259E-003
 -1.160000000000000E-002    2.118838653234745E-003
 -1.150000000000000E-002    2.218104096336809E-003
 -1.140000000000000E-002    2.321679742989420E-003
 -1.130000000000000E-002    2.429732025253623E-003
 -1.120000000000000E-002    2.542432075184115E-003
 -1.110000000000000E-002    2.659956036836873E-003
 -1.100000000000000E-002    2.782485662087773E-003
 -1.090000000000000E-002    2.910207326622688E-003
 -1.080000000000000E-002    3.043312666589109E-003
 -1.070000000000000E-002    3.181998732894515E-003
 -1.060000000000000E-002    3.326467582152967E-003
 -1.050000000000000E-002    3.476927067990770E-003
 -1.040000000000000E-002    3.633589892218758E-003
 -1.030000000000000E-002    3.796674697479342E-003
 -1.020000000000000E-002    3.966406482708521E-003
 -1.010000000000000E-002    4.143015945496650E-003
 -1.000000000000000E-002    4.326740191131860E-003
 -9.899999999999999E-003    4.517822743556117E-003
 -9.800000000000000E-003    4.716514182378976E-003
 -9.699999999999999E-003    4.923071775320089E-003
 -9.599999999999999E-003    5.137760095842409E-003
 -9.500000000000000E-003    5.360849989150547E-003
 -9.399999999999999E-003    5.592620137898306E-003
 -9.299999999999999E-003    5.833355594429853E-003
 -9.200000000000000E-003    6.083349403643057E-003
 -9.099999999999999E-003    6.342900062082342E-003
 -8.999999999999999E-003    6.612314257880522E-003
 -8.900000000000000E-003    6.891905317727128E-003
 -8.799999999999999E-003    7.181992838234845E-003
 -8.699999999999999E-003    7.482904906755426E-003
 -8.600000000000000E-003    7.794975658987737E-003
 -8.499999999999999E-003    8.118547278268499E-003
 -8.399999999999999E-003    8.453968538960190E-003
 -8.300000000000000E-003    8.801597259037867E-003
 -8.199999999999999E-003    9.161797928233342E-003
 -8.100000000000000E-003    9.534942830618216E-003
 -8.000000000000000E-003    9.921412796002416E-003
 -7.899999999999999E-003    1.032159556892680E-002
 -7.800000000000000E-003    1.073588684464693E-002
 -7.699999999999999E-003    1.116468873265690E-002
 -7.599999999999999E-003    1.160841130936189E-002
 -7.499999999999999E-003    1.206747032294383E-002
 -7.399999999999999E-003    1.254228961961711E-002
 -7.299999999999999E-003    1.303329857958524E-002
 -7.199999999999999E-003    1.354093241035577E-002
 -7.100000000000000E-003    1.406563297832105E-002
 -6.999999999999999E-003    1.460784700983036E-002
 -6.899999999999999E-003    1.516802901695197E-002
 -6.800000000000000E-003    1.574663721379764E-002
 -6.699999999999999E-003    1.634413753173216E-002
 -6.599999999999999E-003    1.696100108838913E-002
 -6.499999999999999E-003    1.759770552772708E-002
 -6.399999999999999E-003    1.825473158517642E-002
 -6.299999999999999E-003    1.893256782920704E-002
 -6.199999999999999E-003    1.963170287460678E-002
 -6.100000000000000E-003    2.035263372317677E-002
 -5.999999999999999E-003    2.109585798156228E-002
 -5.899999999999999E-003    2.186187602450768E-002
 -5.800000000000000E-003    2.265118967454263E-002
 -5.699999999999999E-003    2.346430215610085E-002
 -5.599999999999999E-003    2.430171644679915E-002
 -5.499999999999999E-003    2.516393492437731E-002
 -5.399999999999999E-003    2.605145812754480E-002
 -5.299999999999999E-003    2.696478571717058E-002
 -5.199999999999999E-003    2.790441557499521E-002
 -5.099999999999999E-003    2.887084531626881E-002
 -4.999999999999999E-003    2.986456797689454E-002
 -4.899999999999999E-003    3.088607522542465E-002
 -4.799999999999999E-003    3.193585519240837E-002
 -4.699999999999999E-003    3.301439139426969E-002
 -4.599999999999999E-003    3.412216416966042E-002
 -4.499999999999999E-003    3.525964921630442E-002
 -4.399999999999999E-003    3.642731725774875E-002
 -4.299999999999999E-003    3.762562604903695E-002
 -4.199999999999999E-003    3.885503198138142E-002
 -4.099999999999999E-003    4.011597638079546E-002
 -3.999999999999999E-003    4.140888930445217E-002
 -3.899999999999999E-003    4.273418718095963E-002
 -3.799999999999999E-003    4.409227975581310E-002
 -3.699999999999999E-003    4.548355318901370E-002
 -3.599999999999999E-003    4.690837999603219E-002
 -3.499999999999999E-003    4.836711256749018E-002
 -3.399999999999999E-003    4.986008969452645E-002
 -3.299999999999999E-003    5.138762847123587E-002
 -3.199999999999999E-003    5.295002453817647E-002
 -3.099999999999999E-003    5.454755577969451E-002
 -2.999999999999999E-003    5.618047608731735E-002
 -2.899999999999999E-003    5.784901293343862E-002
 -2.799999999999999E-003    5.955337419509461E-002
 -2.699999999999999E-003    6.129373334188357E-002
 -2.599999999999999E-003    6.307024286484486E-002
 -2.499999999999999E-003    6.488302256234878E-002
 -2.399999999999999E-003    6.673216277295656E-002
 -2.299999999999999E-003    6.861770775287952E-002
 -2.199999999999999E-003    7.053967892814826E-002
 -2.099999999999999E-003    7.249805315966587E-002
 -1.999999999999999E-003    7.449276483485483E-002
 -1.899999999999999E-003    7.652370744139558E-002
 -1.799999999999999E-003    7.859073645880099E-002
 -1.699999999999999E-003    8.069365310306861E-002
 -1.599999999999999E-003    8.283221375151653E-002
 -1.499999999999999E-003    8.500613358657652E-002
 -1.399999999999999E-003    8.721506854468858E-002
 -1.299999999999999E-003    8.945861937477138E-002
 -1.199999999999999E-003    9.173634274833933E-002
 -1.099999999999999E-003    9.404774489658208E-002
 -9.999999999999989E-004    9.639225887309982E-002
 -8.999999999999990E-004    9.876926561819087E-002
 -7.999999999999990E-004    0.101178080867583     
 -6.999999999999989E-004    0.103617956716898     
 -5.999999999999990E-004    0.106088082161781     
 -4.999999999999989E-004    0.108587576071418     
 -3.999999999999989E-004    0.111115476933098     
 -2.999999999999989E-004    0.113670751602809     
 -1.999999999999989E-004    0.116252305673958     
 -9.999999999999892E-005    0.118858944219896     
  1.084202172485504E-018    0.121489413018605     
  1.000000000000011E-004    0.124142351044530     
  2.000000000000011E-004    0.126816337250119     
  3.000000000000011E-004    0.129509847710850     
  4.000000000000011E-004    0.132221284703148     
  5.000000000000011E-004    0.134948949751293     
  6.000000000000011E-004    0.137691058685332     
  7.000000000000011E-004    0.140445735038501     
  8.000000000000011E-004    0.143211011756688     
  9.000000000000012E-004    0.145984814337363     
  1.000000000000001E-003    0.148764970964315     
  1.100000000000001E-003    0.151549219265190     
  1.200000000000001E-003    0.154335182806626     
  1.300000000000001E-003    0.157120398485127     
  1.400000000000001E-003    0.159902260010160     
  1.500000000000001E-003    0.162678098307111     
  1.600000000000001E-003    0.165445106317225     
  1.700000000000001E-003    0.168200359061632     
  1.800000000000001E-003    0.170940856802786     
  1.900000000000001E-003    0.173663455712665     
  2.000000000000001E-003    0.176364899041145     
  2.100000000000001E-003    0.179041830942118     
  2.200000000000001E-003    0.181690788406388     
  2.300000000000001E-003    0.184308169461778     
  2.400000000000001E-003    0.186890270809088     
  2.500000000000001E-003    0.189433285624907     
  2.600000000000001E-003    0.191933263826581     
  2.700000000000001E-003    0.194386170758466     
  2.800000000000001E-003    0.196787831991529     
  2.900000000000001E-003    0.199133972257449     
  3.000000000000001E-003    0.201420173654932     
  3.100000000000001E-003    0.203641946043208     
  3.200000000000001E-003    0.205794638822145     
  3.300000000000001E-003    0.207873507134575     
  3.400000000000001E-003    0.209873692679702     
  3.500000000000001E-003    0.211790231960882     
  3.600000000000001E-003    0.213618028991517     
  3.700000000000001E-003    0.215351902633521     
  3.800000000000001E-003    0.216986534562190     
  3.900000000000001E-003    0.218516519956578     
  4.000000000000001E-003    0.219936365339619     
  4.100000000000001E-003    0.221240450913772     
  4.200000000000001E-003    0.222423074937767     
  4.300000000000001E-003    0.223478441554845     
  4.400000000000001E-003    0.224400651193923     
  4.500000000000001E-003    0.225183731684881     
  4.600000000000002E-003    0.225821616465451     
  4.700000000000001E-003    0.226308179582066     
  4.800000000000001E-003    0.226637186447379     
  4.900000000000002E-003    0.226802346678633     
  5.000000000000001E-003    0.226797309689136     
  5.100000000000001E-003    0.226615643788443     
  5.200000000000001E-003    0.226250855719376     
  5.300000000000002E-003    0.225696408108973     
  5.400000000000001E-003    0.224945708401737     
  5.500000000000001E-003    0.223992134494747     
  5.600000000000002E-003    0.222829014110174     
  5.700000000000001E-003    0.221449652633376     
  5.800000000000001E-003    0.219847333586709     
  5.900000000000002E-003    0.218015332587467     
  6.000000000000001E-003    0.215946903377293     
  6.100000000000001E-003    0.213635312719264     
  6.200000000000002E-003    0.211073829782999     
  6.300000000000002E-003    0.208255750409080     
  6.400000000000001E-003    0.205174380395974     
  6.500000000000001E-003    0.201823073001312     
  6.600000000000002E-003    0.198195219492454     
  6.700000000000001E-003    0.194284240082476     
  6.800000000000001E-003    0.190083647400608     
  6.900000000000002E-003    0.185586988967394     
  7.000000000000001E-003    0.180787899953682     
  7.100000000000001E-003    0.175680103667024     
  7.200000000000002E-003    0.170257407235306     
  7.300000000000002E-003    0.164513745912585     
  7.400000000000001E-003    0.158443144727459     
  7.500000000000001E-003    0.152039764314804     
  7.600000000000002E-003    0.145297913983305     
  7.700000000000001E-003    0.138212069041599     
  7.800000000000001E-003    0.130776828319489     
  7.900000000000001E-003    0.122986994179538     
  8.000000000000002E-003    0.114837538226906     
  8.100000000000001E-003    0.106323636741133     
  8.200000000000001E-003    9.744068234422093E-002
  8.300000000000002E-003    8.818426909482117E-002
  8.400000000000001E-003    7.855024657146643E-002
  8.500000000000002E-003    6.853467601387978E-002
  8.600000000000002E-003    5.813390076818202E-002
  8.700000000000001E-003    4.734449301837590E-002
  8.800000000000002E-003    3.616331461481617E-002
  8.900000000000002E-003    2.458752978461848E-002
  9.000000000000001E-003    1.261457713426919E-002
  9.100000000000002E-003    2.422167545144357E-004
  9.200000000000002E-003   -1.253146851186785E-002
  9.300000000000001E-003   -2.570805948901852E-002
  9.400000000000002E-003   -3.928879134957129E-002
  9.500000000000001E-003   -5.327454837102995E-002
  9.600000000000001E-003   -6.766582463270844E-002
  9.700000000000002E-003   -8.246275050092160E-002
  9.800000000000001E-003   -9.766505337839955E-002
  9.900000000000001E-003   -0.113272059984994     
  1.000000000000000E-002   -0.129282675491922     
  1.010000000000000E-002   -0.145695406137625     
  1.020000000000000E-002   -0.162508281805295     
  1.030000000000000E-002   -0.179718935411527     
  1.040000000000000E-002   -0.197324526076317     
  1.050000000000000E-002   -0.215321776903044     
  1.060000000000000E-002   -0.233706916945878     
  1.070000000000000E-002   -0.252475725755914     
  1.080000000000000E-002   -0.271623492796509     
  1.090000000000000E-002   -0.291145019557777     
  1.100000000000000E-002   -0.311034603834212     
  1.110000000000000E-002   -0.331286046380770     
  1.120000000000000E-002   -0.351892610335766     
  1.130000000000000E-002   -0.372847072401499     
  1.140000000000000E-002   -0.394141693937909     
  1.150000000000000E-002   -0.415768196155406     
  1.160000000000000E-002   -0.437717751089851     
  1.170000000000000E-002   -0.459980983713689     
  1.180000000000000E-002   -0.482548052713479     
  1.190000000000000E-002   -0.505408520848443     
  1.200000000000000E-002   -0.528551409577965     
  1.210000000000000E-002   -0.551965218822920     
  1.220000000000000E-002   -0.575637935781704     
  1.230000000000000E-002   -0.599556997410856     
  1.240000000000000E-002   -0.623709276816790     
  1.250000000000000E-002   -0.648081153718925     
  1.260000000000000E-002   -0.672658416911365     
  1.270000000000000E-002   -0.697426374449031     
  1.280000000000000E-002   -0.722369887767650     
  1.290000000000000E-002   -0.747473165652248     
  1.300000000000000E-002   -0.772720004507709     
  1.310000000000000E-002   -0.798093616821432     
  1.320000000000000E-002   -0.823576780739773     
  1.330000000000000E-002   -0.849151756927901     
  1.340000000000000E-002   -0.874800351692755     
  1.350000000000000E-002   -0.900503891202671     
  1.360000000000000E-002   -0.926243193662753     
  1.370000000000000E-002   -0.951998706820260     
  1.380000000000000E-002   -0.977750357491766     
  1.390000000000000E-002    -1.00347772189949     
  1.400000000000000E-002    -1.02915989385778     
  1.410000000000000E-002    -1.05477572913960     
  1.420000000000000E-002    -1.08030356154726     
  1.430000000000000E-002    -1.10572142593860     
  1.440000000000000E-002    -1.13100704334286     
  1.450000000000000E-002    -1.15613785650873     
  1.460000000000000E-002    -1.18109083780664     
  1.470000000000000E-002    -1.20584296175407     
  1.480000000000000E-002    -1.23037063675260     
  1.490000000000000E-002    -1.25465007726639     
  1.500000000000000E-002    -1.27865750313183     
  1.510000000000000E-002    -1.30236875531549     
  1.520000000000000E-002    -1.32575950988285     
  1.530000000000000E-002    -1.34880545353346     
  1.540000000000000E-002    -1.37148193895319     
  1.550000000000000E-002    -1.39376429609456     
  1.560000000000000E-002    -1.41562778255601     
  1.570000000000000E-002    -1.43704766102467     
  1.580000000000000E-002    -1.45799904364273     
  1.590000000000000E-002    -1.47845724425840     
  1.600000000000000E-002    -1.49839754009268     
  1.610000000000000E-002    -1.51779516776745     
  1.620000000000000E-002    -1.53662562325635     
  1.630000000000000E-002    -1.55486442268579     
  1.640000000000000E-002    -1.57248734893608     
  1.650000000000000E-002    -1.58947024937727     
  1.660000000000000E-002    -1.60578928972592     
  1.670000000000000E-002    -1.62142073783643     
  1.680000000000000E-002    -1.63634134413939     
  1.690000000000000E-002    -1.65052789470587     
  1.700000000000000E-002    -1.66395775991824     
  1.710000000000000E-002    -1.67660859418210     
  1.720000000000000E-002    -1.68845838848855     
  1.730000000000000E-002    -1.69948561033473     
  1.740000000000000E-002    -1.70966917231730     
  1.750000000000000E-002    -1.71898848012165     
  1.760000000000000E-002    -1.72742339917943     
  1.770000000000000E-002    -1.73495451171953     
  1.780000000000000E-002    -1.74156283002670     
  1.790000000000000E-002    -1.74723010496928     
  1.800000000000000E-002    -1.75193853962165     
  1.810000000000000E-002    -1.75567118482108     
  1.820000000000000E-002    -1.75841172202647     
  1.830000000000000E-002    -1.76014456607855     
  1.840000000000000E-002    -1.76085487292405     
  1.850000000000000E-002    -1.76052855231135     
  1.860000000000000E-002    -1.75915227472905     
  1.870000000000000E-002    -1.75671363127152     