 -4.000000000000000E-002    0.000000000000000E+000
 -3.990000000000000E-002    0.000000000000000E+000
 -3.980000000000000E-002    0.000000000000000E+000
 -3.970000000000000E-002    0.000000000000000E+000
 -3.960000000000000E-002    0.000000000000000E+000
 -3.950000000000000E-002    1.249580151449753E-020
 -3.940000000000000E-002    1.220069100910035E-019
 -3.930000000000000E-002    6.321497677585179E-019
 -3.920000000000000E-002    2.290645562820196E-018
 -3.910000000000000E-002    6.445120420532287E-018
 -3.900000000000000E-002    1.476492921848662E-017
 -3.890000000000000E-002    2.793568048362527E-017
 -3.880000000000000E-002    4.262643325008157E-017
 -3.870000000000000E-002    4.621273327086036E-017
 -3.860000000000000E-002    9.356260432112234E-018
 -3.850000000000000E-002   -1.223618990372696E-016
 -3.840000000000000E-002   -4.351082155015679E-016
 -3.830000000000000E-002   -1.047648223434212E-015
 -3.820000000000000E-002   -2.101293311255928E-015
 -3.810000000000000E-002   -3.733975471773961E-015
 -3.800000000000000E-002   -6.035230792274807E-015
 -3.790000000000000E-002   -8.982500246453527E-015
 -3.780000000000000E-002   -1.236445936931706E-014
 -3.770000000000000E-002   -1.570331829654351E-014
 -3.760000000000000E-002   -1.819386939745053E-014
 -3.750000000000000E-002   -1.868083498394687E-014
 -3.740000000000000E-002   -1.569611659757270E-014
 -3.730000000000000E-002   -7.572601423215943E-015
 -3.720000000000000E-002    7.359235157473537E-015
 -3.710000000000000E-002    3.050049406258304E-014
 -3.700000000000000E-002    6.266458428133027E-014
 -3.690000000000000E-002    1.037513372161095E-013
 -3.680000000000000E-002    1.524670810014088E-013
 -3.670000000000000E-002    2.061449537503204E-013
 -3.660000000000000E-002    2.607096127161498E-013
 -3.650000000000000E-002    3.108081617798013E-013
 -3.640000000000000E-002    3.500968630986391E-013
 -3.630000000000000E-002    3.716373718235519E-013
 -3.620000000000000E-002    3.683232689067250E-013
 -3.610000000000000E-002    3.332401341732749E-013
 -3.600000000000000E-002    2.598646396771832E-013
 -3.590000000000000E-002    1.420420784202044E-013
 -3.580000000000000E-002   -2.625905542012332E-014
 -3.570000000000000E-002   -2.513300092647915E-013
 -3.560000000000000E-002   -5.400643751370615E-013
 -3.550000000000000E-002   -8.999963056038943E-013
 -3.540000000000000E-002   -1.338719968892417E-012
 -3.530000000000000E-002   -1.862380165090352E-012
 -3.520000000000000E-002   -2.473004906093732E-012
 -3.510000000000000E-002   -3.164615102150725E-012
 -3.500000000000000E-002   -3.918284077972462E-012
 -3.490000000000000E-002   -4.696615031459719E-012
 -3.480000000000000E-002   -5.438409744988720E-012
 -3.470000000000000E-002   -6.054565989736247E-012
 -3.460000000000000E-002   -6.426407379495595E-012
 -3.450000000000000E-002   -6.407664040885903E-012
 -3.440000000000000E-002   -5.831125737292342E-012
 -3.430000000000000E-002   -4.520593525581604E-012
 -3.420000000000000E-002   -2.308150406639707E-012
 -3.410000000000000E-002    9.439787962585174E-013
 -3.400000000000000E-002    5.318531409669942E-012
 -3.390000000000000E-002    1.081756758204363E-011
 -3.380000000000000E-002    1.733900642972779E-011
 -3.370000000000000E-002    2.465852754811121E-011
 -3.360000000000000E-002    3.241993384973320E-011
 -3.350000000000000E-002    4.013660794591600E-011
 -3.340000000000000E-002    4.720565127100672E-011
 -3.330000000000000E-002    5.293519091000121E-011
 -3.320000000000000E-002    5.658371377156194E-011
 -3.310000000000000E-002    5.740891000604857E-011
 -3.300000000000000E-002    5.472226031684723E-011
 -3.290000000000000E-002    4.794473177423690E-011
 -3.280000000000000E-002    3.665866333179044E-011
 -3.270000000000000E-002    2.065130159549956E-011
 -3.260000000000000E-002   -5.347250987852258E-014
 -3.250000000000000E-002   -2.517724486778071E-011
 -3.240000000000000E-002   -5.418313728423207E-011
 -3.230000000000000E-002   -8.628417185400176E-011
 -3.220000000000000E-002   -1.204606600462659E-010
 -3.210000000000000E-002   -1.554826604738429E-010
 -3.200000000000000E-002   -1.899332596448195E-010
 -3.190000000000000E-002   -2.222295313464458E-010
 -3.180000000000000E-002   -2.506397799303184E-010
 -3.170000000000000E-002   -2.732982404109255E-010
 -3.160000000000000E-002   -2.882209272877121E-010
 -3.150000000000000E-002   -2.933292695291872E-010
 -3.140000000000000E-002   -2.864898428162860E-010
 -3.130000000000000E-002   -2.655787575801925E-010
 -3.120000000000000E-002   -2.285789453145101E-010
 -3.110000000000000E-002   -1.737149194864334E-010
 -3.100000000000000E-002   -9.962593157054738E-011
 -3.090000000000000E-002   -5.571761787773305E-012
 -3.080000000000000E-002    1.083403319978187E-010
 -3.070000000000000E-002    2.409256480727305E-010
 -3.060000000000000E-002    3.897125141006362E-010
 -3.050000000000000E-002    5.507794826958017E-010
 -3.040000000000000E-002    7.186662690917519E-010
 -3.030000000000000E-002    8.863824217642413E-010
 -3.020000000000000E-002    1.045532391361086E-009
 -3.010000000000000E-002    1.186566035590815E-009
 -3.000000000000000E-002    1.299153686246229E-009
 -2.990000000000000E-002    1.372672507696904E-009
 -2.980000000000000E-002    1.396780567621061E-009
 -2.970000000000000E-002    1.362044547342586E-009
 -2.960000000000000E-002    1.260581715802385E-009
 -2.950000000000000E-002    1.086673117264142E-009
 -2.940000000000000E-002    8.373070620848993E-010
 -2.930000000000000E-002    5.126178212884615E-010
 -2.920000000000000E-002    1.161919637200678E-010
 -2.910000000000000E-002   -3.447745123733627E-010
 -2.900000000000000E-002   -8.594724756782667E-010
 -2.890000000000000E-002   -1.413625858676872E-009
 -2.880000000000000E-002   -1.989776334674582E-009
 -2.870000000000000E-002   -2.567688825921642E-009
 -2.860000000000000E-002   -3.124860860887687E-009
 -2.850000000000000E-002   -3.637124768423293E-009
 -2.840000000000000E-002   -4.079328238628172E-009
 -2.830000000000000E-002   -4.426092473040625E-009
 -2.820000000000000E-002   -4.652648677712679E-009
 -2.810000000000000E-002   -4.735750704161595E-009
 -2.800000000000000E-002   -4.654666447617962E-009
 -2.790000000000000E-002   -4.392235278288155E-009
 -2.780000000000000E-002   -3.935969986352065E-009
 -2.770000000000000E-002   -3.279163179653250E-009
 -2.760000000000000E-002   -2.421942048817319E-009
 -2.750000000000000E-002   -1.372194030691210E-009
 -2.740000000000000E-002   -1.462787136757409E-010
 -2.730000000000000E-002    1.230566461648135E-009
 -2.720000000000000E-002    2.724213211516676E-009
 -2.710000000000000E-002    4.292094892061164E-009
 -2.700000000000000E-002    5.884163219908979E-009
 -2.690000000000000E-002    7.444357184843087E-009
 -2.680000000000000E-002    8.912546921865060E-009
 -2.670000000000000E-002    1.022686758408852E-008
 -2.660000000000000E-002    1.132632308653938E-008
 -2.650000000000000E-002    1.215349967789676E-008
 -2.640000000000000E-002    1.265722277308267E-008
 -2.630000000000000E-002    1.279496631912462E-008
 -2.620000000000000E-002    1.253487639414044E-008
 -2.610000000000000E-002    1.185726654890128E-008
 -2.600000000000000E-002    1.075551967276364E-008
 -2.590000000000000E-002    9.236372048450030E-009
 -2.580000000000000E-002    7.319617366577826E-009
 -2.570000000000000E-002    5.037326725221857E-009
 -2.560000000000000E-002    2.432706607681323E-009
 -2.550000000000000E-002   -4.412482128441241E-010
 -2.540000000000000E-002   -3.523157624880428E-009
 -2.530000000000000E-002   -6.744595519033779E-009
 -2.520000000000000E-002   -1.003126993554731E-008
 -2.510000000000000E-002   -1.330403110043463E-008
 -2.500000000000000E-002   -1.647972221336510E-008
 -2.490000000000000E-002   -1.947198894523671E-008
 -2.480000000000000E-002   -2.219216052154772E-008
 -2.470000000000000E-002   -2.455038028556410E-008
 -2.460000000000000E-002   -2.645712656305365E-008
 -2.450000000000000E-002   -2.782526014632933E-008
 -2.440000000000000E-002   -2.857265533467213E-008
 -2.430000000000000E-002   -2.862540145204467E-008
 -2.420000000000000E-002   -2.792147313038066E-008
 -2.410000000000000E-002   -2.641466895771952E-008
 -2.400000000000000E-002   -2.407854380126993E-008
 -2.390000000000000E-002   -2.091002244102016E-008
 -2.380000000000000E-002   -1.693233199730197E-008
 -2.370000000000000E-002   -1.219693821147505E-008
 -2.360000000000000E-002   -6.784212014198055E-009
 -2.350000000000000E-002   -8.026528663718066E-010
 -2.340000000000000E-002    5.613401336061685E-009
 -2.330000000000000E-002    1.230750050238576E-008
 -2.320000000000000E-002    1.910606664823390E-008
 -2.310000000000000E-002    2.582433687036277E-008
 -2.300000000000000E-002    3.227289397057449E-008
 -2.290000000000000E-002    3.826437633870241E-008
 -2.280000000000000E-002    4.361997243288549E-008
 -2.270000000000000E-002    4.817534598199345E-008
 -2.260000000000000E-002    5.178569443653372E-008
 -2.250000000000000E-002    5.432981991884954E-008
 -2.240000000000000E-002    5.571311524123396E-008
 -2.230000000000000E-002    5.586949097705935E-008
 -2.220000000000000E-002    5.476241465197098E-008
 -2.210000000000000E-002    5.238516143245274E-008
 -2.200000000000000E-002    4.876050637756473E-008
 -2.190000000000000E-002    4.393997006748748E-008
 -2.180000000000000E-002    3.800271948485401E-008
 -2.170000000000000E-002    3.105416645665752E-008
 -2.160000000000000E-002    2.322419513410951E-008
 -2.150000000000000E-002    1.466493344123986E-008
 -2.140000000000000E-002    5.547936119160671E-009
 -2.130000000000000E-002   -3.939331612156302E-009
 -2.120000000000000E-002   -1.359775885587414E-008
 -2.110000000000000E-002   -2.322158208956132E-008
 -2.100000000000000E-002   -3.260392242243227E-008
 -2.090000000000000E-002   -4.154261261567629E-008
 -2.080000000000000E-002   -4.984587692470557E-008
 -2.070000000000000E-002   -5.733738734110553E-008
 -2.060000000000000E-002   -6.386018811736973E-008
 -2.050000000000000E-002   -6.927897527801991E-008
 -2.040000000000000E-002   -7.348037875526316E-008
 -2.030000000000000E-002   -7.637102030161222E-008
 -2.020000000000000E-002   -7.787339602037634E-008
 -2.010000000000000E-002   -7.791982312349455E-008
 -2.000000000000000E-002   -7.644498537874380E-008
 -1.990000000000000E-002   -7.337780913472998E-008
 -1.980000000000000E-002   -6.863353598672436E-008
 -1.970000000000000E-002   -6.210688708277129E-008
 -1.960000000000000E-002   -5.366719171759817E-008
 -1.950000000000000E-002   -4.315613536483725E-008
 -1.940000000000000E-002   -3.038851539703545E-008
 -1.930000000000000E-002   -1.515604392395436E-008
 -1.920000000000000E-002    2.766113803164248E-009
 -1.910000000000000E-002    2.361079830951468E-008
 -1.900000000000000E-002    4.760932387690356E-008
 -1.890000000000000E-002    7.498214530396950E-008
 -1.880000000000000E-002    1.059310342840627E-007
 -1.870000000000000E-002    1.406339252547682E-007
 -1.860000000000000E-002    1.792434188363201E-007
 -1.850000000000000E-002    2.218894110261101E-007
 -1.840000000000000E-002    2.686859518584129E-007
 -1.830000000000000E-002    3.197419291589510E-007
 -1.820000000000000E-002    3.751745381532596E-007
 -1.810000000000000E-002    4.351241027182072E-007
 -1.800000000000000E-002    4.997686177298172E-007
 -1.790000000000000E-002    5.693360075709052E-007
 -1.780000000000000E-002    6.441125579861866E-007
 -1.770000000000000E-002    7.244463796371491E-007
 -1.760000000000000E-002    8.107440106297806E-007
 -1.750000000000000E-002    9.034613772889938E-007
 -1.740000000000000E-002    1.003088114489667E-006
 -1.730000000000000E-002    1.110127394571261E-006
 -1.720000000000000E-002    1.225073066703337E-006
 -1.710000000000000E-002    1.348385667479077E-006
 -1.700000000000000E-002    1.480471232649662E-006
 -1.690000000000000E-002    1.621664139872406E-006
 -1.680000000000000E-002    1.772217752255635E-006
 -1.670000000000000E-002    1.932303414553606E-006
 -1.660000000000000E-002    2.102020003309341E-006
 -1.650000000000000E-002    2.281413629326060E-006
 -1.640000000000000E-002    2.470507157653695E-006
 -1.630000000000000E-002    2.669337293585790E-006
 -1.620000000000000E-002    2.877997187906287E-006
 -1.610000000000000E-002    3.096682469367421E-006
 -1.600000000000000E-002    3.325734375814556E-006
 -1.590000000000000E-002    3.565680178912234E-006
 -1.580000000000000E-002    3.817265431340098E-006
 -1.570000000000000E-002    4.081475229131338E-006
 -1.560000000000000E-002    4.359546050293961E-006
 -1.550000000000000E-002    4.652962472428492E-006
 -1.540000000000000E-002    4.963443004385676E-006
 -1.530000000000000E-002    5.292915503422899E-006
 -1.520000000000000E-002    5.643483634003021E-006
 -1.510000000000000E-002    6.017387159801134E-006
 -1.500000000000000E-002    6.416962542676014E-006
 -1.490000000000000E-002    6.844602528641730E-006
 -1.480000000000000E-002    7.302721820413177E-006
 -1.470000000000000E-002    7.793729445997876E-006
 -1.460000000000000E-002    8.320013207272190E-006
 -1.450000000000000E-002    8.883931663292688E-006
 -1.440000000000000E-002    9.487819812620077E-006
 -1.430000000000000E-002    1.013400321107073E-005
 -1.420000000000000E-002    1.082481979850124E-005
 -1.410000000000000E-002    1.156265017646238E-005
 -1.400000000000000E-002    1.234994907289939E-005
 -1.390000000000000E-002    1.318927226642815E-005
 -1.380000000000000E-002    1.408331078641814E-005
 -1.370000000000000E-002    1.503490485023438E-005
 -1.360000000000000E-002    1.604706195536448E-005
 -1.350000000000000E-002    1.712296103111108E-005
 -1.340000000000000E-002    1.826594248870876E-005
 -1.330000000000000E-002    1.947949805081410E-005
 -1.320000000000000E-002    2.076724628661336E-005
 -1.310000000000000E-002    2.213290407849885E-005
 -1.300000000000000E-002    2.358026075650845E-005
 -1.290000000000000E-002    2.511314257759063E-005
 -1.280000000000000E-002    2.673539508287162E-005
 -1.270000000000000E-002    2.845085839197263E-005
 -1.260000000000000E-002    3.026336560566484E-005
 -1.250000000000000E-002    3.217673989696572E-005
 -1.240000000000000E-002    3.419481253010667E-005
 -1.230000000000000E-002    3.632144845706178E-005
 -1.220000000000000E-002    3.856059204960717E-005
 -1.210000000000000E-002    4.091631631186611E-005
 -1.200000000000000E-002    4.339288158791841E-005
 -1.190000000000000E-002    4.599480880108238E-005
 -1.180000000000000E-002    4.872694567369974E-005
 -1.170000000000000E-002    5.159453462579389E-005
 -1.160000000000000E-002    5.460329352570007E-005
 -1.150000000000000E-002    5.775945111464619E-005
 -1.140000000000000E-002    6.106982664673684E-005
 -1.130000000000000E-002    6.454185436302857E-005
 -1.120000000000000E-002    6.818361683036144E-005
 -1.110000000000000E-002    7.200386083511660E-005
 -1.100000000000000E-002    7.601199796143337E-005
 -1.090000000000000E-002    8.021811088900948E-005
 -1.080000000000000E-002    8.463291766826301E-005
 -1.070000000000000E-002    8.926774699665707E-005
 -1.060000000000000E-002    9.413452906901094E-005
 -1.050000000000000E-002    9.924574920485732E-005
 -1.040000000000000E-002    1.046144257581427E-004
 -1.030000000000000E-002    1.102540926812189E-004
 -1.020000000000000E-002    1.161787892479483E-004
 -1.010000000000000E-002    1.224030683637392E-004
 -1.000000000000000E-002    1.289420290472261E-004
 -9.899999999999999E-003    1.358113449678753E-004
 -9.800000000000000E-003    1.430273234047761E-004
 -9.699999999999999E-003    1.506069809939041E-004
 -9.599999999999999E-003    1.585681414480274E-004
 -9.500000000000000E-003    1.669295249860151E-004
 -9.399999999999999E-003    1.757108463387504E-004
 -9.299999999999999E-003    1.849329292051881E-004
 -9.200000000000000E-003    1.946177969516904E-004
 -9.099999999999999E-003    2.047887623700350E-004
 -8.999999999999999E-003    2.154704717091707E-004
 -8.900000000000000E-003    2.266889866050809E-004
 -8.799999999999999E-003    2.384717529921803E-004
 -8.699999999999999E-003    2.508475998222183E-004
 -8.600000000000000E-003    2.638467591501395E-004
 -8.499999999999999E-003    2.775006926287519E-004
 -8.399999999999999E-003    2.918420991233612E-004
 -8.300000000000000E-003    3.069047819862502E-004
 -8.199999999999999E-003    3.227235632637379E-004
 -8.100000000000000E-003    3.393342152041733E-004
 -8.000000000000000E-003    3.567733293143004E-004
 -7.899999999999999E-003    3.750782883164393E-004
 -7.800000000000000E-003    3.942871961299881E-004
 -7.699999999999999E-003    4.144389205116823E-004
 -7.599999999999999E-003    4.355731260283841E-004
 -7.499999999999999E-003    4.577302190055315E-004
 -7.399999999999999E-003    4.809516239533685E-004
 -7.299999999999999E-003    5.052796926617944E-004
 -7.199999999999999E-003    5.307580416705044E-004
 -7.100000000000000E-003    5.574314605161148E-004
 -6.999999999999999E-003    5.853461823419719E-004
 -6.899999999999999E-003    6.145500574732781E-004
 -6.800000000000000E-003    6.450925129426351E-004
 -6.699999999999999E-003    6.770246482452611E-004
 -6.599999999999999E-003    7.103994354233584E-004
 -6.499999999999999E-003    7.452715835225965E-004
 -6.399999999999999E-003    7.816977114932048E-004
 -6.299999999999999E-003    8.197361506374035E-004
 -6.199999999999999E-003    8.594471343470870E-004
 -6.100000000000000E-003    9.008925971906761E-004
 -5.999999999999999E-003    9.441361444178559E-004
 -5.899999999999999E-003    9.892432777049997E-004
 -5.800000000000000E-003    1.036281216191807E-003
 -5.699999999999999E-003    1.085318923654122E-003
 -5.599999999999999E-003    1.136427216989853E-003
 -5.499999999999999E-003    1.189678778785268E-003
 -5.399999999999999E-003    1.245148379285948E-003
 -5.299999999999999E-003    1.302912928054748E-003
 -5.199999999999999E-003    1.363051674447096E-003
 -5.099999999999999E-003    1.425646205036541E-003
 -4.999999999999999E-003    1.490780819231577E-003
 -4.899999999999999E-003    1.558542514838264E-003
 -4.799999999999999E-003    1.629021198563888E-003
 -4.699999999999999E-003    1.702309585491717E-003
 -4.599999999999999E-003    1.778503939051603E-003
 -4.499999999999999E-003    1.857703354430995E-003
 -4.399999999999999E-003    1.940010457839447E-003
 -4.299999999999999E-003    2.025531193821623E-003
 -4.199999999999999E-003    2.114375086721527E-003
 -4.099999999999999E-003    2.206655024338546E-003
 -3.999999999999999E-003    2.302487598912301E-003
 -3.899999999999999E-003    2.401992874988045E-003
 -3.799999999999999E-003    2.505294654594132E-003
 -3.699999999999999E-003    2.612520284878825E-003
 -3.599999999999999E-003    2.723800852555028E-003
 -3.499999999999999E-003    2.839271431313757E-003
 -3.399999999999999E-003    2.959070659253931E-003
 -3.299999999999999E-003    3.083341344812610E-003
 -3.199999999999999E-003    3.212229887081973E-003
 -3.099999999999999E-003    3.345887033829437E-003
 -2.999999999999999E-003    3.484467202816063E-003
 -2.899999999999999E-003    3.628129488229796E-003
 -2.799999999999999E-003    3.777036359177769E-003
 -2.699999999999999E-003    3.931354992097218E-003
 -2.599999999999999E-003    4.091256364593975E-003
 -2.499999999999999E-003    4.256916278457026E-003
 -2.399999999999999E-003    4.428514833489581E-003
 -2.299999999999999E-003    4.606236114611000E-003
 -2.199999999999999E-003    4.790268957211044E-003
 -2.099999999999999E-003    4.980806568785110E-003
 -1.999999999999999E-003    5.178047414997414E-003
 -1.899999999999999E-003    5.382193707429292E-003
 -1.799999999999999E-003    5.593452770956890E-003
 -1.699999999999999E-003    5.812036531799899E-003
 -1.599999999999999E-003    6.038161827284209E-003
 -1.499999999999999E-003    6.272050613497897E-003
 -1.399999999999999E-003    6.513928246167971E-003
 -1.299999999999999E-003    6.764025231071310E-003
 -1.199999999999999E-003    7.022577366550342E-003
 -1.099999999999999E-003    7.289824404370321E-003
 -9.999999999999989E-004    7.566010143656748E-003
 -8.999999999999990E-004    7.851383974588816E-003
 -7.999999999999990E-004    8.146198574661727E-003
 -6.999999999999989E-004    8.450710723713674E-003
 -5.999999999999990E-004    8.765183084360190E-003
 -4.999999999999989E-004    9.089881766876600E-003
 -3.999999999999989E-004    9.425076970570977E-003
 -2.999999999999989E-004    9.771043796274807E-003
 -1.999999999999989E-004    1.012806267890508E-002
 -9.999999999999892E-005    1.049641765655523E-002
  1.084202172485504E-018    1.087639710442831E-002
  1.000000000000011E-004    1.126829413258803E-002
  2.000000000000011E-004    1.167240702336806E-002
  3.000000000000011E-004    1.208903874122965E-002
  4.000000000000011E-004    1.251849654530850E-002
  5.000000000000011E-004    1.296109205986911E-002
  6.000000000000011E-004    1.341714159968829E-002
  7.000000000000011E-004    1.388696414799371E-002
  8.000000000000011E-004    1.437088562213211E-002
  9.000000000000012E-004    1.486923426059890E-002
  1.000000000000001E-003    1.538234135143285E-002
  1.100000000000001E-003    1.591054498855853E-002
  1.200000000000001E-003    1.645418503783901E-002
  1.300000000000001E-003    1.701360768709785E-002
  1.400000000000001E-003    1.758916000253766E-002
  1.500000000000001E-003    1.818119548714710E-002
  1.600000000000001E-003    1.879006994845843E-002
  1.700000000000001E-003    1.941614592964099E-002
  1.800000000000001E-003    2.005978782156216E-002
  1.900000000000001E-003    2.072136463405634E-002
  2.000000000000001E-003    2.140124973767619E-002
  2.100000000000001E-003    2.209982002319665E-002
  2.200000000000001E-003    2.281745594716999E-002
  2.300000000000001E-003    2.355454196913885E-002
  2.400000000000001E-003    2.431146336870390E-002
  2.500000000000001E-003    2.508860984403796E-002
  2.600000000000001E-003    2.588637236589775E-002
  2.700000000000001E-003    2.670514601149233E-002
  2.800000000000001E-003    2.754532590173490E-002
  2.900000000000001E-003    2.840730884214827E-002
  3.000000000000001E-003    2.929149145568468E-002
  3.100000000000001E-003    3.019827386901364E-002
  3.200000000000001E-003    3.112805459075316E-002
  3.300000000000001E-003    3.208123680304233E-002
  3.400000000000001E-003    3.305821672014944E-002
  3.500000000000001E-003    3.405939959871799E-002
  3.600000000000001E-003    3.508518421738447E-002
  3.700000000000001E-003    3.613597326011276E-002
  3.800000000000001E-003    3.721216804857665E-002
  3.900000000000001E-003    3.831416847736761E-002
  4.000000000000001E-003    3.944237687941264E-002
  4.100000000000001E-003    4.059718974455326E-002
  4.200000000000001E-003    4.177900613067566E-002
  4.300000000000001E-003    4.298821939724105E-002
  4.400000000000001E-003    4.422522146908319E-002
  4.500000000000001E-003    4.549040308591226E-002
  4.600000000000002E-003    4.678414614007824E-002
  4.700000000000001E-003    4.810683242487727E-002
  4.800000000000001E-003    4.945883596815519E-002
  4.900000000000002E-003    5.084052530758142E-002
  5.000000000000001E-003    5.225226716061909E-002
  5.100000000000001E-003    5.369441532711876E-002
  5.200000000000001E-003    5.516732014185063E-002
  5.300000000000002E-003    5.667132173312956E-002
  5.400000000000001E-003    5.820675359937327E-002
  5.500000000000001E-003    5.977394537281204E-002
  5.600000000000002E-003    6.137321242476718E-002
  5.700000000000001E-003    6.300485974456853E-002
  5.800000000000001E-003    6.466918141225148E-002
  5.900000000000002E-003    6.636646423485429E-002
  6.000000000000001E-003    6.809698012434032E-002
  6.100000000000001E-003    6.986098968879605E-002
  6.200000000000002E-003    7.165874179051497E-002
  6.300000000000002E-003    7.349047216882687E-002
  6.400000000000001E-003    7.535639561447174E-002
  6.500000000000001E-003    7.725671613608649E-002
  6.600000000000002E-003    7.919161877437993E-002
  6.700000000000001E-003    8.116126939793526E-002
  6.800000000000001E-003    8.316582281056965E-002
  6.900000000000002E-003    8.520540721543628E-002
  7.000000000000001E-003    8.728013517016114E-002
  7.100000000000001E-003    8.939009672297840E-002
  7.200000000000002E-003    9.153535776274636E-002
  7.300000000000002E-003    9.371596561982398E-002
  7.400000000000001E-003    9.593194097737807E-002
  7.500000000000001E-003    9.818327320235086E-002
  7.600000000000002E-003    0.100469938735469     
  7.700000000000001E-003    0.102791876561446     
  7.800000000000001E-003    0.105149003900567     
  7.900000000000001E-003    0.107541199804655     
  8.000000000000002E-003    0.109968318593141     
  8.100000000000001E-003    0.112430180490164     
  8.200000000000001E-003    0.114926578541570     
  8.300000000000002E-003    0.117457261712188     
  8.400000000000001E-003    0.120021952099911     
  8.500000000000002E-003    0.122620340578601     
  8.600000000000002E-003    0.125252054923264     
  8.700000000000001E-003    0.127916702588058     
  8.800000000000002E-003    0.130613847567758     
  8.900000000000002E-003    0.133343018674714     
  9.000000000000001E-003    0.136103687347568     
  9.100000000000002E-003    0.138895286597268     
  9.200000000000002E-003    0.141717204013727     
  9.300000000000001E-003    0.144568776449206     
  9.400000000000002E-003    0.147449294042281     
  9.500000000000001E-003    0.150357994193928     
  9.600000000000001E-003    0.153294060033896     
  9.700000000000002E-003    0.156256606137059     
  9.800000000000001E-003    0.159244726171186     
  9.900000000000001E-003    0.162257424769701     
  1.000000000000000E-002    0.165293658850331     
  1.010000000000000E-002    0.168352320735993     
  1.020000000000000E-002    0.171432243657168     
  1.030000000000000E-002    0.174532202992205     
  1.040000000000000E-002    0.177650894457599     
  1.050000000000000E-002    0.180786965299714     
  1.060000000000000E-002    0.183938971592459     
  1.070000000000000E-002    0.187105426857642     
  1.080000000000000E-002    0.190284746846847     
  1.090000000000000E-002    0.193475286177250     
  1.100000000000000E-002    0.196675324466504     
  1.110000000000000E-002    0.199883068481856     
  1.120000000000000E-002    0.203096643552113     
  1.130000000000000E-002    0.206314087020206     
  1.140000000000000E-002    0.209533374554649     
  1.150000000000000E-002    0.212752368133157     
  1.160000000000000E-002    0.215968885016494     
  1.170000000000000E-002    0.219180636315504     
  1.180000000000000E-002    0.222385229288185     
  1.190000000000000E-002    0.225580212467405     
  1.200000000000000E-002    0.228763024090891     
  1.210000000000000E-002    0.231931019862254     
  1.220000000000000E-002    0.235081476237429     
  1.230000000000000E-002    0.238211556431773     
  1.240000000000000E-002    0.241318334430151     
  1.250000000000000E-002    0.244398776015624     
  1.260000000000000E-002    0.247449812184357     
  1.270000000000000E-002    0.250468201878160     
  1.280000000000000E-002    0.253450638858656     
  1.290000000000000E-002    0.256393729669283     
  1.300000000000000E-002    0.259293986226220     
  1.310000000000000E-002    0.262147774256066     
  1.320000000000000E-002    0.264951418554934     
  1.330000000000000E-002    0.267701094995176     
  1.340000000000000E-002    0.270392913175157     
  1.350000000000000E-002    0.273022863397640     
  1.360000000000000E-002    0.275586845649317     
  1.370000000000000E-002    0.278080617870997     
  1.380000000000000E-002    0.280499896256603     
  1.390000000000000E-002    0.282840252343265     
  1.400000000000000E-002    0.285097187755360     
  1.410000000000000E-002    0.287266091826622     
  1.420000000000000E-002    0.289342257545038     
  1.430000000000000E-002    0.291320891226476     
  1.440000000000000E-002    0.293197070516504     
  1.450000000000000E-002    0.294965821689249     
  1.460000000000000E-002    0.296622036313800     
  1.470000000000000E-002    0.298160542887048     
  1.480000000000000E-002    0.299576076326956     
  1.490000000000000E-002    0.300863281109593     
  1.500000000000000E-002    0.302016704773834     
  1.510000000000000E-002    0.303030813990868     
  1.520000000000000E-002    0.303899989733282     
  1.530000000000000E-002    0.304618573971980     
  1.540000000000000E-002    0.305180754431641     
  1.550000000000000E-002    0.305580724438160     
  1.560000000000000E-002    0.305812555847638     
  1.570000000000000E-002    0.305870300488043     
  1.580000000000000E-002    0.305747902986478     
  1.590000000000000E-002    0.305439291221005     
  1.600000000000000E-002    0.304938292852911     
  1.610000000000000E-002    0.304238720025390     
  1.620000000000000E-002    0.303334324951953     
  1.630000000000000E-002    0.302218837525020     
  1.640000000000000E-002    0.300885927196710     
  1.650000000000000E-002    0.299329256208706     
  1.660000000000000E-002    0.297542438658526     
  1.670000000000000E-002    0.295519082906187     
  1.680000000000000E-002    0.293252815172026     
  1.690000000000000E-002    0.290737222563212     
  1.700000000000000E-002    0.287965890379324     
  1.710000000000000E-002    0.284932418199676     
  1.720000000000000E-002    0.281630434363818     
  1.730000000000000E-002    0.278053579037311     
  1.740000000000000E-002    0.274195527997030     
  1.750000000000000E-002    0.270049982762382     
  1.760000000000000E-002    0.265610696886269     
  1.770000000000000E-002    0.260871484802293     
  1.780000000000000E-002    0.255826224483623     
  1.790000000000000E-002    0.250468859918729     
  1.800000000000000E-002    0.244793407520794     
  1.810000000000000E-002    0.238793979573098     
  1.820000000000000E-002    0.232464798395895     
  1.830000000000000E-002    0.225800167639416     
  1.840000000000000E-002    0.218794526285612     
  1.850000000000000E-002    0.211442461525713     
  1.860000000000000E-002    0.203738660832111     
  1.870000000000000E-002    0.195677976953211     