# vtk DataFile Version 3.1
material model VTK file
ASCII
DATASET UNSTRUCTURED_GRID
POINTS         2700 float
      0.000000E+00      0.000000E+00      0.100000E+01
      0.397778E+01      0.000000E+00      0.100000E+01
      0.000000E+00      0.000000E+00      0.493333E+01
      0.397778E+01      0.000000E+00      0.493333E+01
      0.397778E+01      0.000000E+00      0.100000E+01
      0.795556E+01      0.000000E+00      0.100000E+01
      0.397778E+01      0.000000E+00      0.493333E+01
      0.795556E+01      0.000000E+00      0.493333E+01
      0.795556E+01      0.000000E+00      0.100000E+01
      0.119333E+02      0.000000E+00      0.100000E+01
      0.795556E+01      0.000000E+00      0.493333E+01
      0.119333E+02      0.000000E+00      0.493333E+01
      0.119333E+02      0.000000E+00      0.100000E+01
      0.159111E+02      0.000000E+00      0.100000E+01
      0.119333E+02      0.000000E+00      0.493333E+01
      0.159111E+02      0.000000E+00      0.493333E+01
      0.159111E+02      0.000000E+00      0.100000E+01
      0.198889E+02      0.000000E+00      0.100000E+01
      0.159111E+02      0.000000E+00      0.493333E+01
      0.198889E+02      0.000000E+00      0.493333E+01
      0.198889E+02      0.000000E+00      0.100000E+01
      0.238667E+02      0.000000E+00      0.100000E+01
      0.198889E+02      0.000000E+00      0.493333E+01
      0.238667E+02      0.000000E+00      0.493333E+01
      0.238667E+02      0.000000E+00      0.100000E+01
      0.278444E+02      0.000000E+00      0.100000E+01
      0.238667E+02      0.000000E+00      0.493333E+01
      0.278444E+02      0.000000E+00      0.493333E+01
      0.278444E+02      0.000000E+00      0.100000E+01
      0.318222E+02      0.000000E+00      0.100000E+01
      0.278444E+02      0.000000E+00      0.493333E+01
      0.318222E+02      0.000000E+00      0.493333E+01
      0.318222E+02      0.000000E+00      0.100000E+01
      0.358000E+02      0.000000E+00      0.100000E+01
      0.318222E+02      0.000000E+00      0.493333E+01
      0.358000E+02      0.000000E+00      0.493333E+01
      0.358000E+02      0.000000E+00      0.100000E+01
      0.397778E+02      0.000000E+00      0.100000E+01
      0.358000E+02      0.000000E+00      0.493333E+01
      0.397778E+02      0.000000E+00      0.493333E+01
      0.397778E+02      0.000000E+00      0.100000E+01
      0.437556E+02      0.000000E+00      0.100000E+01
      0.397778E+02      0.000000E+00      0.493333E+01
      0.437556E+02      0.000000E+00      0.493333E+01
      0.437556E+02      0.000000E+00      0.100000E+01
      0.477333E+02      0.000000E+00      0.100000E+01
      0.437556E+02      0.000000E+00      0.493333E+01
      0.477333E+02      0.000000E+00      0.493333E+01
      0.477333E+02      0.000000E+00      0.100000E+01
      0.517111E+02      0.000000E+00      0.100000E+01
      0.477333E+02      0.000000E+00      0.493333E+01
      0.517111E+02      0.000000E+00      0.493333E+01
      0.517111E+02      0.000000E+00      0.100000E+01
      0.556889E+02      0.000000E+00      0.100000E+01
      0.517111E+02      0.000000E+00      0.493333E+01
      0.556889E+02      0.000000E+00      0.493333E+01
      0.556889E+02      0.000000E+00      0.100000E+01
      0.596667E+02      0.000000E+00      0.100000E+01
      0.556889E+02      0.000000E+00      0.493333E+01
      0.596667E+02      0.000000E+00      0.493333E+01
      0.596667E+02      0.000000E+00      0.100000E+01
      0.636444E+02      0.000000E+00      0.100000E+01
      0.596667E+02      0.000000E+00      0.493333E+01
      0.636444E+02      0.000000E+00      0.493333E+01
      0.636444E+02      0.000000E+00      0.100000E+01
      0.676222E+02      0.000000E+00      0.100000E+01
      0.636444E+02      0.000000E+00      0.493333E+01
      0.676222E+02      0.000000E+00      0.493333E+01
      0.676222E+02      0.000000E+00      0.100000E+01
      0.716000E+02      0.000000E+00      0.100000E+01
      0.676222E+02      0.000000E+00      0.493333E+01
      0.716000E+02      0.000000E+00      0.493333E+01
      0.716000E+02      0.000000E+00      0.100000E+01
      0.755778E+02      0.000000E+00      0.100000E+01
      0.716000E+02      0.000000E+00      0.493333E+01
      0.755778E+02      0.000000E+00      0.493333E+01
      0.755778E+02      0.000000E+00      0.100000E+01
      0.795556E+02      0.000000E+00      0.100000E+01
      0.755778E+02      0.000000E+00      0.493333E+01
      0.795556E+02      0.000000E+00      0.493333E+01
      0.795556E+02      0.000000E+00      0.100000E+01
      0.835333E+02      0.000000E+00      0.100000E+01
      0.795556E+02      0.000000E+00      0.493333E+01
      0.835333E+02      0.000000E+00      0.493333E+01
      0.835333E+02      0.000000E+00      0.100000E+01
      0.875111E+02      0.000000E+00      0.100000E+01
      0.835333E+02      0.000000E+00      0.493333E+01
      0.875111E+02      0.000000E+00      0.493333E+01
      0.875111E+02      0.000000E+00      0.100000E+01
      0.914889E+02      0.000000E+00      0.100000E+01
      0.875111E+02      0.000000E+00      0.493333E+01
      0.914889E+02      0.000000E+00      0.493333E+01
      0.914889E+02      0.000000E+00      0.100000E+01
      0.954667E+02      0.000000E+00      0.100000E+01
      0.914889E+02      0.000000E+00      0.493333E+01
      0.954667E+02      0.000000E+00      0.493333E+01
      0.954667E+02      0.000000E+00      0.100000E+01
      0.994444E+02      0.000000E+00      0.100000E+01
      0.954667E+02      0.000000E+00      0.493333E+01
      0.994444E+02      0.000000E+00      0.493333E+01
      0.994444E+02      0.000000E+00      0.100000E+01
      0.103422E+03      0.000000E+00      0.100000E+01
      0.994444E+02      0.000000E+00      0.493333E+01
      0.103422E+03      0.000000E+00      0.493333E+01
      0.103422E+03      0.000000E+00      0.100000E+01
      0.107400E+03      0.000000E+00      0.100000E+01
      0.103422E+03      0.000000E+00      0.493333E+01
      0.107400E+03      0.000000E+00      0.493333E+01
      0.107400E+03      0.000000E+00      0.100000E+01
      0.111378E+03      0.000000E+00      0.100000E+01
      0.107400E+03      0.000000E+00      0.493333E+01
      0.111378E+03      0.000000E+00      0.493333E+01
      0.111378E+03      0.000000E+00      0.100000E+01
      0.115356E+03      0.000000E+00      0.100000E+01
      0.111378E+03      0.000000E+00      0.493333E+01
      0.115356E+03      0.000000E+00      0.493333E+01
      0.115356E+03      0.000000E+00      0.100000E+01
      0.119333E+03      0.000000E+00      0.100000E+01
      0.115356E+03      0.000000E+00      0.493333E+01
      0.119333E+03      0.000000E+00      0.493333E+01
      0.119333E+03      0.000000E+00      0.100000E+01
      0.123311E+03      0.000000E+00      0.100000E+01
      0.119333E+03      0.000000E+00      0.493333E+01
      0.123311E+03      0.000000E+00      0.493333E+01
      0.123311E+03      0.000000E+00      0.100000E+01
      0.127289E+03      0.000000E+00      0.100000E+01
      0.123311E+03      0.000000E+00      0.493333E+01
      0.127289E+03      0.000000E+00      0.493333E+01
      0.127289E+03      0.000000E+00      0.100000E+01
      0.131267E+03      0.000000E+00      0.100000E+01
      0.127289E+03      0.000000E+00      0.493333E+01
      0.131267E+03      0.000000E+00      0.493333E+01
      0.131267E+03      0.000000E+00      0.100000E+01
      0.135244E+03      0.000000E+00      0.100000E+01
      0.131267E+03      0.000000E+00      0.493333E+01
      0.135244E+03      0.000000E+00      0.493333E+01
      0.135244E+03      0.000000E+00      0.100000E+01
      0.139222E+03      0.000000E+00      0.100000E+01
      0.135244E+03      0.000000E+00      0.493333E+01
      0.139222E+03      0.000000E+00      0.493333E+01
      0.139222E+03      0.000000E+00      0.100000E+01
      0.143200E+03      0.000000E+00      0.100000E+01
      0.139222E+03      0.000000E+00      0.493333E+01
      0.143200E+03      0.000000E+00      0.493333E+01
      0.143200E+03      0.000000E+00      0.100000E+01
      0.147178E+03      0.000000E+00      0.100000E+01
      0.143200E+03      0.000000E+00      0.493333E+01
      0.147178E+03      0.000000E+00      0.493333E+01
      0.147178E+03      0.000000E+00      0.100000E+01
      0.151156E+03      0.000000E+00      0.100000E+01
      0.147178E+03      0.000000E+00      0.493333E+01
      0.151156E+03      0.000000E+00      0.493333E+01
      0.151156E+03      0.000000E+00      0.100000E+01
      0.155133E+03      0.000000E+00      0.100000E+01
      0.151156E+03      0.000000E+00      0.493333E+01
      0.155133E+03      0.000000E+00      0.493333E+01
      0.155133E+03      0.000000E+00      0.100000E+01
      0.159111E+03      0.000000E+00      0.100000E+01
      0.155133E+03      0.000000E+00      0.493333E+01
      0.159111E+03      0.000000E+00      0.493333E+01
      0.159111E+03      0.000000E+00      0.100000E+01
      0.163089E+03      0.000000E+00      0.100000E+01
      0.159111E+03      0.000000E+00      0.493333E+01
      0.163089E+03      0.000000E+00      0.493333E+01
      0.163089E+03      0.000000E+00      0.100000E+01
      0.167067E+03      0.000000E+00      0.100000E+01
      0.163089E+03      0.000000E+00      0.493333E+01
      0.167067E+03      0.000000E+00      0.493333E+01
      0.167067E+03      0.000000E+00      0.100000E+01
      0.171044E+03      0.000000E+00      0.100000E+01
      0.167067E+03      0.000000E+00      0.493333E+01
      0.171044E+03      0.000000E+00      0.493333E+01
      0.171044E+03      0.000000E+00      0.100000E+01
      0.175022E+03      0.000000E+00      0.100000E+01
      0.171044E+03      0.000000E+00      0.493333E+01
      0.175022E+03      0.000000E+00      0.493333E+01
      0.175022E+03      0.000000E+00      0.100000E+01
      0.179000E+03      0.000000E+00      0.100000E+01
      0.175022E+03      0.000000E+00      0.493333E+01
[...]
POINT_DATA             2700
SCALARS gll_data float
LOOKUP_TABLE default
   941.571912255568     
   941.568244371383     
   870.091722222314     
   870.091613063093     
   941.568244371383     
   942.620840991183     
   870.091613063093     
   870.176935009497     
   942.620840991183     
   924.063606970124     
   870.176935009497     
   864.607600229294     
   924.063606970124     
   925.540727119547     
   864.607600229294     
   854.232778806412     
   925.540727119547     
   870.807139472784     
   854.232778806412     
   856.023808813321     
   870.807139472784     
   868.990285172797     
   856.023808813321     
   856.282401521732     
   868.990285172797     
   868.983348301792     
   856.282401521732     
   856.290646507997     
   868.983348301792     
   882.919256454311     
   856.290646507997     
   855.430188614956     
   882.919256454311     
   925.595645030443     
   855.430188614956     
   854.111466518166     
   925.595645030443     
   925.971197565363     
   854.111466518166     
   868.252519632634     
   925.971197565363     
   942.121466615556     
   868.252519632634     
   870.064140890380     
   942.121466615556     
   940.419727320906     
   870.064140890380     
   870.383528642395     
   940.419727320906     
   938.260197320398     
   870.383528642395     
   887.756159522390     
   938.260197320398     
   938.224860751262     
   887.756159522390     
   886.508561256605     
   938.224860751262     
   938.019273234243     
   886.508561256605     
   914.773008105894     
   938.019273234243     
   937.997450133186     
   914.773008105894     
   924.212471287408     
   937.997450133186     
   937.996948062003     
   924.212471287408     
   939.132502474465     
   937.996948062003     
   937.999893542441     
   939.132502474465     
   938.194755110012     
   937.999893542441     
   937.999993956384     
   938.194755110012     
   937.999147910720     
   937.999993956384     
   937.999993956384     
   937.999147910720     
   937.998844141114     
   937.999993956384     
   937.999993956384     
   937.998844141114     
   938.000059218950     
   937.999993956384     
   937.999993956384     
   938.000059218950     
   937.999991714667     
   937.999993956384     
   937.999993956384     
   937.999991714667     
   937.999991714667     
   937.999993956384     
   937.999993956384     
   937.999991714667     
   937.999991714667     
   937.999993956384     
   937.999993956384     
   937.999991714667     
   937.999991714667     
   937.999993956384     
   937.999993956384     
   937.999991714667     
   937.999991714667     
   937.999993956384     
   937.999993956384     
   937.999991714667     
   937.999991714667     
   937.999993956384     
   937.999993956384     
   937.999991714667     
   937.999687945334     
   937.999993956384     
   937.999993956384     
   937.999687945334     
   937.996582742062     
   937.999993956384     
   937.999993956384     
   937.996582742062     
   937.996143962510     
   937.999993956384     
   937.999927013757     
   937.996143962510     
   938.152640235106     
   937.999927013757     
   937.999993956384     
   938.152640235106     
   938.229242005095     
   937.999993956384     
   937.998855931070     
   938.229242005095     
   938.376151424690     
   937.998855931070     
   937.997115419094     
   938.376151424690     
   939.514510247937     
   937.997115419094     
   937.997115419094     
   939.514510247937     
   939.538030971472     
   937.997115419094     
   937.997115419094     
   939.538030971472     
   939.537424427259     
   937.997115419094     
   937.997115419094     
   939.537424427259     
   939.537357033433     
   937.997115419094     
   937.997115419094     
   939.537357033433     
   939.537424427259     
   937.997115419094     
   937.997115419094     
   939.537424427259     
   939.536615701032     
   937.997115419094     
   937.996646819164     
   939.536615701032     
   939.805411442881     
   937.996646819164     
   937.991391789633     
   939.805411442881     
   935.287358632068     
   937.991391789633     
   937.989617792125     
   935.287358632068     
   924.245493155141     
   937.989617792125     
   937.989383490317     
   924.245493155141     
   924.285569978205     
   937.989383490317     
   937.989383490317     
   924.285569978205     
   924.285706990004     
   937.989383490317     
   937.989383490317     
   924.285706990004     
   924.285706990004     
   870.091722222314     
   870.091613063093     
   823.214766938612     
   823.200180917763     
   870.091613063093     
   870.176935009497     
   823.200180917763     
   823.237421309638     
   870.176935009497     
   864.607600229294     
   823.237421309638     
   811.357472065778     
   864.607600229294     
   854.232778806412     
   811.357472065778     
   805.270570760311     
   854.232778806412     
   856.023808813321     
   805.270570760311     
   805.465261572804     
   856.023808813321     
   856.282401521732     
   805.465261572804     
   805.433424318711     
   856.282401521732     
   856.290646507997     
   805.433424318711     
   805.433146777962     
   856.290646507997     
   855.430188614956     
   805.433146777962     
   805.474657881755     
   855.430188614956     
   854.111466518166     
   805.474657881755     
   805.128706284156     
   854.111466518166     
   868.252519632634     
   805.128706284156     
   823.148972627961     
   868.252519632634     
   870.064140890380     
   823.148972627961     
   824.960584854127     
   870.064140890380     
   870.383528642395     
   824.960584854127     
   855.708246823424     
   870.383528642395     
   887.756159522390     
   855.708246823424     
   858.870618648327     
   887.756159522390     
   886.508561256605     
   858.870618648327     
   869.083125065279     
   886.508561256605     
   914.773008105894     
   869.083125065279     
   870.564775671231     
   914.773008105894     
   924.212471287408     
   870.564775671231     
   871.495496395672     
   924.212471287408     
   939.132502474465     
   871.495496395672     
   892.112659019476     
   939.132502474465     
   938.194755110012     
   892.112659019476     
   926.370774483188     
   938.194755110012     
   937.999147910720     
   926.370774483188     
   938.682431008600     
   937.999147910720     
   937.998844141114     
   938.682431008600     
   938.081233842279     
   937.998844141114     
   938.000059218950     
   938.081233842279     
   937.996703207766     
   938.000059218950     
   937.999991714667     
   937.996703207766     
   937.999869413954     
   937.999991714667     
   937.999991714667     
   937.999869413954     
   937.999937504293     
   937.999991714667     
   937.999991714667     
   937.999937504293     
   937.999937504293     
   937.999991714667     
   937.999991714667     
   937.999937504293     
   937.999869413954     
   937.999991714667     
   937.999991714667     
   937.999869413954     
   937.998099063424     
   937.999991714667     
   937.999991714667     
   937.998099063424     
   937.998643787020     
   937.999991714667     
   937.999687945334     
   937.998643787020     
   938.008482802513     
   937.999687945334     
   937.996582742062     
   938.008482802513     
   938.255786093675     
   937.996582742062     
   937.996143962510     
   938.255786093675     
   939.216127633522     
   937.996143962510     
   938.152640235106     
   939.216127633522     
   926.314823840469     
   938.152640235106     
   938.229242005095     
   926.314823840469     
   925.426745230349     
   938.229242005095     
   938.376151424690     
   925.426745230349     
   901.460402649154     
   938.376151424690     
   939.514510247937     
   901.460402649154     
   888.946294888711     
   939.514510247937     
   939.538030971472     
   888.946294888711     
   889.040877330391     
   939.538030971472     
   939.537424427259     
   889.040877330391     
   889.058406126949     
   939.537424427259     
   939.537357033433     
   889.058406126949     
   889.058334288324     
   939.537357033433     
   939.537424427259     
   889.058334288324     
   889.057544063067     
   939.537424427259     
   939.536615701032     
   889.057544063067     
   889.055173383083     
   939.536615701032     
   939.805411442881     
   889.055173383083     
   889.335983149699     
   939.805411442881     
   935.287358632068     
   889.335983149699     
   874.981863705656     
   935.287358632068     
   924.245493155141     
   874.981863705656     
   869.516496502344     
   924.245493155141     
   924.285569978205     
   869.516496502344     
   869.561779193812     
   924.285569978205     
   924.285706990004     
   869.561779193812     
   869.561889367801     
   924.285706990004     
   924.285706990004     
   869.561889367801     
   869.561889367801     
   823.214766938612     
   823.200180917763     
   804.753651646813     
   804.778315330334     
   823.200180917763     
   823.237421309638     
   804.778315330334     
   804.746965095878     
   823.237421309638     
   811.357472065778     
   804.746965095878     
   804.934247586243     
   811.357472065778     
   805.270570760311     
   804.934247586243     
   805.679742769535     
   805.270570760311     
   805.465261572804     
   805.679742769535     
   806.042278077349     
   805.465261572804     
   805.433424318711     
   806.042278077349     
   806.044636601851     
   805.433424318711     
   805.433146777962     
   806.044636601851     
   806.050113149077     
   805.433146777962     
   805.474657881755     
   806.050113149077     
   806.034482904899     
   805.474657881755     
   805.128706284156     
   806.034482904899     
   805.899954334090     
   805.128706284156     
   823.148972627961     
   805.899954334090     
   804.872358707044     
   823.148972627961     
   824.960584854127     
   804.872358707044     
   804.703441098173     
   824.960584854127     
   855.708246823424     
   804.703441098173     
   803.740105231199     
   855.708246823424     
   858.870618648327     
   803.740105231199     
   805.764763481897     
   858.870618648327     
   869.083125065279     
   805.764763481897     
   818.942216690658     
   869.083125065279     
   870.564775671231     
   818.942216690658     
   820.616028530221     
   870.564775671231     
   871.495496395672     
   820.616028530221     
   853.449345163254     
   871.495496395672     
   892.112659019476     
   853.449345163254     
   868.062883847904     
   892.112659019476     
   926.370774483188     
   868.062883847904     
   871.557132894680     
   926.370774483188     
   938.682431008600     
   871.557132894680     
   891.162594446005     
   938.682431008600     
   938.081233842279     
   891.162594446005     
   931.542986005242     
   938.081233842279     
   937.996703207766     
   931.542986005242     
   938.286972942621     
   937.996703207766     
   937.999869413954     
   938.286972942621     
   937.997572236176     
   937.999869413954     
   937.999937504293     
   937.997572236176     
   937.992316448998     
   937.999937504293     
   937.999937504293     
   937.992316448998     
   937.992247745703     
   937.999937504293     
   937.999869413954     
   937.992247745703     
   937.995957716451     
   937.999869413954     
   937.998099063424     
   937.995957716451     
   938.196102630128     
   937.998099063424     
   937.998643787020     
   938.196102630128     
   938.262144173243     
   937.998643787020     
   938.008482802513     
   938.262144173243     
   938.576215754679     
   938.008482802513     
   938.255786093675     
   938.576215754679     
   921.817578018584     
   938.255786093675     
   939.216127633522     
   921.817578018584     
   884.737292663877     
   939.216127633522     
   926.314823840469     
   884.737292663877     
   868.536911852542     
   926.314823840469     
   925.426745230349     
   868.536911852542     
   867.908306788675     
   925.426745230349     
   901.460402649154     
   867.908306788675     
   868.749016254857     
   901.460402649154     
   888.946294888711     
   868.749016254857     
   868.981611283171     
   888.946294888711     
   889.040877330391     
   868.981611283171     
   868.913530280818     
   889.040877330391     
   889.058406126949     
   868.913530280818     
   868.757583917358     
   889.058406126949     
   889.058334288324     
   868.757583917358     
   868.760996123053     
   889.058334288324     
   889.057544063067     
   868.760996123053     
   868.761886261465     
   889.057544063067     
   889.055173383083     
   868.761886261465     
   868.795339968865     
   889.055173383083     
   889.335983149699     
   868.795339968865     
   868.793263057795     
   889.335983149699     
   874.981863705656     
   868.793263057795     
   868.969560296007     
   874.981863705656     
   869.516496502344     
   868.969560296007     
   869.001448698057     
   869.516496502344     
   869.561779193812     
   869.001448698057     
   869.000484647241     
   869.561779193812     
   869.561889367801     
   869.000484647241     
   869.000484647241     
   869.561889367801     
   869.561889367801     
   869.000484647241     
   869.000484647241     
   804.753651646813     
   804.778315330334     
   807.215823521837     
   809.171998563613     
   804.778315330334     
   804.746965095878     
   809.171998563613     
   812.421022765153     
   804.746965095878     
   804.934247586243     
   812.421022765153     
   808.224964412250     
   804.934247586243     
   805.679742769535     
   808.224964412250     
   756.089309427404     
   805.679742769535     
   806.042278077349     
   756.089309427404     
   739.833066063557     
   806.042278077349     
   806.044636601851     
   739.833066063557     
   739.265119860795     
   806.044636601851     
   806.050113149077     
   739.265119860795     
   738.876695179706     
   806.050113149077     
   806.034482904899     
   738.876695179706     
   739.945416285771     
   806.034482904899     
   805.899954334090     
   739.945416285771     
   737.700936064237     
   805.899954334090     
   804.872358707044     
   737.700936064237     
   807.094906161950     
   804.872358707044     
   804.703441098173     
   807.094906161950     
   811.798819697352     
   804.703441098173     
   803.740105231199     
   811.798819697352     
   809.047313564135     
   803.740105231199     
   805.764763481897     
   809.047313564135     
   806.046263126672     
   805.764763481897     
   818.942216690658     
   806.046263126672     
   805.456525723007     
   818.942216690658     
   820.616028530221     
   805.456525723007     
   804.692991742035     
   820.616028530221     
   853.449345163254     
   804.692991742035     
   803.468030972311     
   853.449345163254     
   868.062883847904     
   803.468030972311     
   815.692271844821     
   868.062883847904     
   871.557132894680     
   815.692271844821     
   845.860053354194     
   871.557132894680     
   891.162594446005     
   845.860053354194     
   868.443418689038     
   891.162594446005     
   931.542986005242     
   868.443418689038     
   877.512088398345     
   931.542986005242     
   938.286972942621     
   877.512088398345     
   922.245308869430     
   938.286972942621     
   937.997572236176     
   922.245308869430     
   939.644765175790     
   937.997572236176     
   937.992316448998     
   939.644765175790     
   939.624690491100     
   937.992316448998     
   937.992247745703     
   939.624690491100     
   939.624759714888     
   937.992247745703     
   937.995957716451     
   939.624759714888     
   939.656325230653     
   937.995957716451     
   938.196102630128     
   939.656325230653     
   923.327565182180     
   938.196102630128     
   938.262144173243     
   923.327565182180     
   910.547102080249     
   938.262144173243     
   938.576215754679     
   910.547102080249     
   882.948928984127     
   938.576215754679     
   921.817578018584     
   882.948928984127     
   867.432798219902     
   921.817578018584     
   884.737292663877     
   867.432798219902     
   868.933597901803     
   884.737292663877     
   868.536911852542     
   868.933597901803     
   869.940568277952     
   868.536911852542     
   867.908306788675     
   869.940568277952     
   865.980999949776     
   867.908306788675     
   868.749016254857     
   865.980999949776     
   857.134158461601     
   868.749016254857     
   868.981611283171     
   857.134158461601     
   855.301984549346     
   868.981611283171     
   868.913530280818     
   855.301984549346     
   856.894591193003     
   868.913530280818     
   868.757583917358     
   856.894591193003     
   870.874825719720     
   868.757583917358     
   868.760996123053     
   870.874825719720     
   870.542286127550     
   868.760996123053     
   868.761886261465     
   870.542286127550     
   870.590141105438     
   868.761886261465     
   868.795339968865     
   870.590141105438     
   867.971997193616     
   868.795339968865     
   868.793263057795     
   867.971997193616     
   868.179701425972     
   868.793263057795     
   868.969560296007     
   868.179701425972     
   870.628430664832     
   868.969560296007     
   869.001448698057     
   870.628430664832     
   870.512809738315     
   869.001448698057     
   869.000484647241     
   870.512809738315     
   870.519347680113     
   869.000484647241     
   869.000484647241     
   870.519347680113     
   870.521850764832     
   869.000484647241     
   869.000484647241     
   870.521850764832     
   870.521776045989     
   807.215823521837     
   809.171998563613     
   610.008178745838     
   513.973573505856     
   809.171998563613     
   812.421022765153     
   513.973573505856     
   510.909095740066     
   812.421022765153     
   808.224964412250     
   510.909095740066     
   509.964784128493     
   808.224964412250     
   756.089309427404     
   509.964784128493     
   491.029270213738     
   756.089309427404     
   739.833066063557     
   491.029270213738     
   487.451840796725     
   739.833066063557     
   739.265119860795     
   487.451840796725     
   513.406003746931     
   739.265119860795     
   738.876695179706     
   513.406003746931     
   525.159553720939     
   738.876695179706     
   739.945416285771     
   525.159553720939     
   486.018860566229     
   739.945416285771     
   737.700936064237     
   486.018860566229     
   484.993864489182     
   737.700936064237     
   807.094906161950     
   484.993864489182     
   510.816165423175     
   807.094906161950     
   811.798819697352     
   510.816165423175     
   509.934567548101     
   811.798819697352     
   809.047313564135     
   509.934567548101     
   600.526794641723     
   809.047313564135     
   806.046263126672     
   600.526794641723     
   621.884955381987     
   806.046263126672     
   805.456525723007     
   621.884955381987     
   692.166920327620     
   805.456525723007     
   804.692991742035     
   692.166920327620     
   763.960191314241     
   804.692991742035     
   803.468030972311     
   763.960191314241     
   786.921884757535     
   803.468030972311     
   815.692271844821     
   786.921884757535     
   808.024240806243     
   815.692271844821     
   845.860053354194     
   808.024240806243     
   805.001908235412     
   845.860053354194     
   868.443418689038     
   805.001908235412     
   819.186812034493     
   868.443418689038     