 -4.000000000000000E-002    0.000000000000000E+000
 -3.990000000000000E-002    0.000000000000000E+000
 -3.980000000000000E-002   -1.151639232901012E-012
 -3.970000000000000E-002   -4.695192904752024E-012
 -3.960000000000000E-002   -9.971632226524581E-012
 -3.950000000000000E-002   -1.197017468176071E-011
 -3.940000000000000E-002    9.643646884358826E-013
 -3.930000000000000E-002    4.859128308372236E-011
 -3.920000000000000E-002    1.588133398633820E-010
 -3.910000000000000E-002    3.659153058425937E-010
 -3.900000000000000E-002    7.069190015936889E-010
 -3.890000000000000E-002    1.216313723797613E-009
 -3.880000000000000E-002    1.919750246717957E-009
 -3.870000000000000E-002    2.827531484298525E-009
 -3.860000000000000E-002    3.928875957097919E-009
 -3.850000000000000E-002    5.187894581812892E-009
 -3.840000000000000E-002    6.542047006062374E-009
 -3.830000000000000E-002    7.903508957148883E-009
 -3.820000000000000E-002    9.163472065959133E-009
 -3.810000000000000E-002    1.019894605092658E-008
 -3.800000000000000E-002    1.088119681808761E-008
 -3.790000000000000E-002    1.108467378515671E-008
 -3.780000000000000E-002    1.069515751589920E-008
 -3.770000000000000E-002    9.615890589505622E-009
 -3.760000000000000E-002    7.770772900323930E-009
 -3.750000000000000E-002    5.104155192575691E-009
 -3.740000000000000E-002    1.577348439206690E-009
 -3.730000000000000E-002   -2.837429634246295E-009
 -3.720000000000000E-002   -8.164321459037891E-009
 -3.710000000000000E-002   -1.443064403102860E-008
 -3.700000000000000E-002   -2.167131207321237E-008
 -3.690000000000000E-002   -2.992912728860840E-008
 -3.680000000000000E-002   -3.924956743943273E-008
 -3.670000000000000E-002   -4.966934615200670E-008
 -3.660000000000000E-002   -6.119904908157331E-008
 -3.650000000000000E-002   -7.380097996653636E-008
 -3.640000000000000E-002   -8.736442080183581E-008
 -3.630000000000000E-002   -1.016812378830185E-007
 -3.620000000000000E-002   -1.164253001114044E-007
 -3.610000000000000E-002   -1.311392600578081E-007
 -3.600000000000000E-002   -1.452319744381156E-007
 -3.590000000000000E-002   -1.579889553471810E-007
 -3.580000000000000E-002   -1.685973357219977E-007
 -3.570000000000000E-002   -1.761852003555875E-007
 -3.560000000000000E-002   -1.798737422224700E-007
 -3.550000000000000E-002   -1.788391890651330E-007
 -3.540000000000000E-002   -1.723802426602531E-007
 -3.530000000000000E-002   -1.599858799356238E-007
 -3.520000000000000E-002   -1.413979824599399E-007
 -3.510000000000000E-002   -1.166633537883874E-007
 -3.500000000000000E-002   -8.617061158978523E-008
 -3.490000000000000E-002   -5.066841023133594E-008
 -3.480000000000000E-002   -1.126293823825392E-008
 -3.470000000000000E-002    3.060535198521337E-008
 -3.460000000000000E-002    7.320451834124996E-008
 -3.450000000000000E-002    1.145701883085720E-007
 -3.440000000000000E-002    1.525768783673556E-007
 -3.430000000000000E-002    1.850165490896568E-007
 -3.420000000000000E-002    2.096790325319380E-007
 -3.410000000000000E-002    2.244294193720497E-007
 -3.400000000000000E-002    2.272781967562050E-007
 -3.390000000000000E-002    2.164400197941323E-007
 -3.380000000000000E-002    1.903799558767698E-007
 -3.370000000000000E-002    1.478445832632255E-007
 -3.360000000000000E-002    8.787860334726247E-008
 -3.350000000000000E-002    9.827239049261776E-009
 -3.340000000000000E-002   -8.667468802342290E-008
 -3.330000000000000E-002   -2.017258812552533E-007
 -3.320000000000000E-002   -3.351922595685498E-007
 -3.310000000000000E-002   -4.867508403261551E-007
 -3.300000000000000E-002   -6.559421128491971E-007
 -3.290000000000000E-002   -8.422302827090514E-007
 -3.280000000000000E-002   -1.045070421304148E-006
 -3.270000000000000E-002   -1.263980575629208E-006
 -3.260000000000000E-002   -1.498617581240743E-006
 -3.250000000000000E-002   -1.748851533260541E-006
 -3.240000000000000E-002   -2.014837833914929E-006
 -3.230000000000000E-002   -2.297079681452748E-006
 -3.220000000000000E-002   -2.596478409256125E-006
 -3.210000000000000E-002   -2.914365851933514E-006
 -3.200000000000000E-002   -3.252514466288423E-006
 -3.190000000000000E-002   -3.613123367634432E-006
 -3.180000000000000E-002   -3.998780123850793E-006
 -3.170000000000000E-002   -4.412398030666087E-006
 -3.160000000000000E-002   -4.857137774273956E-006
 -3.150000000000000E-002   -5.336315405476398E-006
 -3.140000000000000E-002   -5.853308900284572E-006
 -3.130000000000000E-002   -6.411474731226048E-006
 -3.120000000000000E-002   -7.014079164595444E-006
 -3.110000000000000E-002   -7.664265192759940E-006
 -3.100000000000000E-002   -8.365048604629534E-006
 -3.090000000000000E-002   -9.119361843505248E-006
 -3.080000000000000E-002   -9.930131025265790E-006
 -3.070000000000000E-002   -1.080039459693070E-005
 -3.060000000000000E-002   -1.173344750630575E-005
 -3.050000000000000E-002   -1.273299748917158E-005
 -3.040000000000000E-002   -1.380331776723063E-005
 -3.030000000000000E-002   -1.494938870710207E-005
 -3.020000000000000E-002   -1.617699384459862E-005
 -3.010000000000000E-002   -1.749276914639596E-005
 -3.000000000000000E-002   -1.890419723495979E-005
 -2.990000000000000E-002   -2.041952877317736E-005
 -2.980000000000000E-002   -2.204765715960720E-005
 -2.970000000000000E-002   -2.379792393489771E-005
 -2.960000000000000E-002   -2.567990701910693E-005
 -2.950000000000000E-002   -2.770317507819204E-005
 -2.940000000000000E-002   -2.987706096598559E-005
 -2.930000000000000E-002   -3.221046460813461E-005
 -2.920000000000000E-002   -3.471170624204550E-005
 -2.910000000000000E-002   -3.738844930084742E-005
 -2.900000000000000E-002   -4.024771490532658E-005
 -2.890000000000000E-002   -4.329598134478709E-005
 -2.880000000000000E-002   -4.653935600337182E-005
 -2.870000000000000E-002   -4.998381912549694E-005
 -2.860000000000000E-002   -5.363554723397554E-005
 -2.850000000000000E-002   -5.750121950913072E-005
 -2.840000000000000E-002   -6.158836303473208E-005
 -2.830000000000000E-002   -6.590565845087644E-005
 -2.820000000000000E-002   -7.046319368398712E-005
 -2.810000000000000E-002   -7.527266555205729E-005
 -2.800000000000000E-002   -8.034748805258674E-005
 -2.790000000000000E-002   -8.570282541053146E-005
 -2.780000000000000E-002   -9.135555051037911E-005
 -2.770000000000000E-002   -9.732413237855891E-005
 -2.760000000000000E-002   -1.036284973677798E-004
 -2.750000000000000E-002   -1.102898179901675E-004
 -2.740000000000000E-002   -1.173303493483408E-004
 -2.730000000000000E-002   -1.247732382436924E-004
 -2.720000000000000E-002   -1.326424033206430E-004
 -2.710000000000000E-002   -1.409624475841712E-004
 -2.700000000000000E-002   -1.497585924078132E-004
 -2.690000000000000E-002   -1.590567377862509E-004
 -2.680000000000000E-002   -1.688835243265483E-004
 -2.670000000000000E-002   -1.792664028110706E-004
 -2.660000000000000E-002   -1.902338241029671E-004
 -2.650000000000000E-002   -2.018153635558225E-004
 -2.640000000000000E-002   -2.140418641396446E-004
 -2.630000000000000E-002   -2.269456028605810E-004
 -2.620000000000000E-002   -2.405603710390490E-004
 -2.610000000000000E-002   -2.549216609906620E-004
 -2.600000000000000E-002   -2.700666373133893E-004
 -2.590000000000000E-002   -2.860342714463643E-004
 -2.580000000000000E-002   -3.028653848182067E-004
 -2.570000000000000E-002   -3.206027238939131E-004
 -2.560000000000000E-002   -3.392909131526663E-004
 -2.550000000000000E-002   -3.589765885337006E-004
 -2.540000000000000E-002   -3.797084960857704E-004
 -2.530000000000000E-002   -4.015375144812637E-004
 -2.520000000000000E-002   -4.245167813558186E-004
 -2.510000000000000E-002   -4.487018151114394E-004
 -2.500000000000000E-002   -4.741504787252805E-004
 -2.490000000000000E-002   -5.009233076259971E-004
 -2.480000000000000E-002   -5.290834694587611E-004
 -2.470000000000000E-002   -5.586969287162588E-004
 -2.460000000000000E-002   -5.898324498919836E-004
 -2.450000000000000E-002   -6.225618272707108E-004
 -2.440000000000000E-002   -6.569598889715663E-004
 -2.430000000000000E-002   -6.931047335577129E-004
 -2.420000000000000E-002   -7.310776773282100E-004
 -2.410000000000000E-002   -7.709635983346699E-004
 -2.400000000000000E-002   -8.128511032038544E-004
 -2.390000000000000E-002   -8.568326649476955E-004
 -2.380000000000000E-002   -9.030048511415783E-004
 -2.370000000000000E-002   -9.514685319277858E-004
 -2.360000000000000E-002   -1.002329271415946E-003
 -2.350000000000000E-002   -1.055697459566659E-003
 -2.340000000000000E-002   -1.111688192546950E-003
 -2.330000000000000E-002   -1.170421778525634E-003
 -2.320000000000000E-002   -1.232023647534666E-003
 -2.310000000000000E-002   -1.296624274885309E-003
 -2.300000000000000E-002   -1.364359457652266E-003
 -2.290000000000000E-002   -1.435370071374186E-003
 -2.280000000000000E-002   -1.509801980808679E-003
 -2.270000000000000E-002   -1.587805946309252E-003
 -2.260000000000000E-002   -1.669537865797568E-003
 -2.250000000000000E-002   -1.755158629166485E-003
 -2.240000000000000E-002   -1.844834286037020E-003
 -2.230000000000000E-002   -1.938736053931412E-003
 -2.220000000000000E-002   -2.037040910170854E-003
 -2.210000000000000E-002   -2.139931845743622E-003
 -2.200000000000000E-002   -2.247598292658306E-003
 -2.190000000000000E-002   -2.360236341071238E-003
 -2.180000000000000E-002   -2.478049685857454E-003
 -2.170000000000000E-002   -2.601249512343576E-003
 -2.160000000000000E-002   -2.730055626992431E-003
 -2.150000000000000E-002   -2.864695758744635E-003
 -2.140000000000000E-002   -3.005406908587583E-003
 -2.130000000000000E-002   -3.152434884388667E-003
 -2.120000000000000E-002   -3.306034135826571E-003
 -2.110000000000000E-002   -3.466468465633938E-003
 -2.100000000000000E-002   -3.634010295216550E-003
 -2.090000000000000E-002   -3.808941012886564E-003
 -2.080000000000000E-002   -3.991551025091290E-003
 -2.070000000000000E-002   -4.182139388065339E-003
 -2.060000000000000E-002   -4.381014069881515E-003
 -2.050000000000000E-002   -4.588492216433523E-003
 -2.040000000000000E-002   -4.804901418905656E-003
 -2.030000000000000E-002   -5.030578247433940E-003
 -2.020000000000000E-002   -5.265870366221683E-003
 -2.010000000000000E-002   -5.511136592107000E-003
 -2.000000000000000E-002   -5.766747321430687E-003
 -1.990000000000000E-002   -6.033084677869291E-003
 -1.980000000000000E-002   -6.310544027568430E-003
 -1.970000000000000E-002   -6.599532407668037E-003
 -1.960000000000000E-002   -6.900470596063852E-003
 -1.950000000000000E-002   -7.213791910152757E-003
 -1.940000000000000E-002   -7.539943189468825E-003
 -1.930000000000000E-002   -7.879383687479591E-003
 -1.920000000000000E-002   -8.232583464528953E-003
 -1.910000000000000E-002   -8.600026023406541E-003
 -1.900000000000000E-002   -8.982206638464775E-003
 -1.890000000000000E-002   -9.379632176407958E-003
 -1.880000000000000E-002   -9.792819468861527E-003
 -1.870000000000000E-002   -1.022229862778027E-002
 -1.860000000000000E-002   -1.066861125151342E-002
 -1.850000000000000E-002   -1.113231224297951E-002
 -1.840000000000000E-002   -1.161396683600147E-002
 -1.830000000000000E-002   -1.211415595135958E-002
 -1.820000000000000E-002   -1.263347382643378E-002
 -1.810000000000000E-002   -1.317252976487559E-002
 -1.800000000000000E-002   -1.373194779699262E-002
 -1.790000000000000E-002   -1.431236770613490E-002
 -1.780000000000000E-002   -1.491444530898922E-002
 -1.770000000000000E-002   -1.553885445705189E-002
 -1.760000000000000E-002   -1.618628178139012E-002
 -1.750000000000000E-002   -1.685743003232193E-002
 -1.740000000000000E-002   -1.755302111587782E-002
 -1.730000000000000E-002   -1.827378862543647E-002
 -1.720000000000000E-002   -1.902048341618318E-002
 -1.710000000000000E-002   -1.979386874086579E-002
 -1.700000000000000E-002   -2.059472457547783E-002
 -1.690000000000000E-002   -2.142384322364090E-002
 -1.680000000000000E-002   -2.228203123344133E-002
 -1.670000000000000E-002   -2.317011145738939E-002
 -1.660000000000000E-002   -2.408891711452487E-002
 -1.650000000000000E-002   -2.503929897783688E-002
 -1.640000000000000E-002   -2.602212181185930E-002
 -1.630000000000000E-002   -2.703826245880436E-002
 -1.620000000000000E-002   -2.808861351581386E-002
 -1.610000000000000E-002   -2.917408031698021E-002
 -1.600000000000000E-002   -3.029558501245901E-002
 -1.590000000000000E-002   -3.145406263296012E-002
 -1.580000000000000E-002   -3.265045698004593E-002
 -1.570000000000000E-002   -3.388573030301379E-002
 -1.560000000000000E-002   -3.516084802914845E-002
 -1.550000000000000E-002   -3.647679543564548E-002
 -1.540000000000000E-002   -3.783456292481639E-002
 -1.530000000000000E-002   -3.923514977790436E-002
 -1.520000000000000E-002   -4.067956709809681E-002
 -1.510000000000000E-002   -4.216882900781745E-002
 -1.500000000000000E-002   -4.370396193214323E-002
 -1.490000000000000E-002   -4.528600145315828E-002
 -1.480000000000000E-002   -4.691598077236123E-002
 -1.470000000000000E-002   -4.859495070400788E-002
 -1.460000000000000E-002   -5.032395959492635E-002
 -1.450000000000000E-002   -5.210406850945731E-002
 -1.440000000000000E-002   -5.393633752206436E-002
 -1.430000000000000E-002   -5.582183375751417E-002
 -1.420000000000000E-002   -5.776162899253565E-002
 -1.410000000000000E-002   -5.975679321503823E-002
 -1.400000000000000E-002   -6.180840324106458E-002
 -1.390000000000000E-002   -6.391753113665476E-002
 -1.380000000000000E-002   -6.608525165350780E-002
 -1.370000000000000E-002   -6.831263408047709E-002
 -1.360000000000000E-002   -7.060074424474132E-002
 -1.350000000000000E-002   -7.295064826410282E-002
 -1.340000000000000E-002   -7.536339906743843E-002
 -1.330000000000000E-002   -7.784004651479322E-002
 -1.320000000000000E-002   -8.038162648727182E-002
 -1.310000000000000E-002   -8.298917744358272E-002
 -1.300000000000000E-002   -8.566371294805193E-002
 -1.290000000000000E-002   -8.840623924863140E-002
 -1.280000000000000E-002   -9.121774715056404E-002
 -1.270000000000000E-002   -9.409921255191259E-002
 -1.260000000000000E-002   -9.705160137135320E-002
 -1.250000000000000E-002   -0.100075848789155     
 -1.240000000000000E-002   -0.103172876327076     
 -1.230000000000000E-002   -0.106343584410569     
 -1.220000000000000E-002   -0.109588833075969     
 -1.210000000000000E-002   -0.112909476726923     
 -1.200000000000000E-002   -0.116306325252591     
 -1.190000000000000E-002   -0.119780161884274     
 -1.180000000000000E-002   -0.123331744741696     
 -1.170000000000000E-002   -0.126961782825605     
 -1.160000000000000E-002   -0.130670938398870     
 -1.150000000000000E-002   -0.134459859612870     
 -1.140000000000000E-002   -0.138329154774568     
 -1.130000000000000E-002   -0.142279357233089     
 -1.120000000000000E-002   -0.146310986323008     
 -1.110000000000000E-002   -0.150424497934279     
 -1.100000000000000E-002   -0.154620318983466     
 -1.090000000000000E-002   -0.158898790994018     
 -1.080000000000000E-002   -0.163260224850095     
 -1.070000000000000E-002   -0.167704887280314     
 -1.060000000000000E-002   -0.172232966423007     
 -1.050000000000000E-002   -0.176844607262765     
 -1.040000000000000E-002   -0.181539868670816     
 -1.030000000000000E-002   -0.186318761485007     
 -1.020000000000000E-002   -0.191181208079630     
 -1.010000000000000E-002   -0.196127081109544     
 -1.000000000000000E-002   -0.201156180383955     
 -9.899999999999999E-003   -0.206268205120236     
 -9.800000000000000E-003   -0.211462802006532     
 -9.699999999999999E-003   -0.216739509400026     
 -9.599999999999999E-003   -0.222097808740141     
 -9.500000000000000E-003   -0.227537094083435     
 -9.399999999999999E-003   -0.233056652762187     
 -9.299999999999999E-003   -0.238655705536278     
 -9.200000000000000E-003   -0.244333371856156     
 -9.099999999999999E-003   -0.250088666791751     
 -8.999999999999999E-003   -0.255920521581525     
 -8.900000000000000E-003   -0.261827775812559     
 -8.799999999999999E-003   -0.267809130838311     
 -8.699999999999999E-003   -0.273863212467030     
 -8.600000000000000E-003   -0.279988519575771     
 -8.499999999999999E-003   -0.286183453006353     
 -8.399999999999999E-003   -0.292446289652393     
 -8.300000000000000E-003   -0.298775227695968     
 -8.199999999999999E-003   -0.305168333847623     
 -8.100000000000000E-003   -0.311623527701396     
 -8.000000000000000E-003   -0.318138634110432     
 -7.899999999999999E-003   -0.324711350356686     
 -7.800000000000000E-003   -0.331339263827187     
 -7.699999999999999E-003   -0.338019843309095     
 -7.599999999999999E-003   -0.344750368726151     
 -7.499999999999999E-003   -0.351528088486778     
 -7.399999999999999E-003   -0.358350053467772     
 -7.299999999999999E-003   -0.365213201340650     
 -7.199999999999999E-003   -0.372114343525357     
 -7.100000000000000E-003   -0.379050163951130     
 -6.999999999999999E-003   -0.386017187599387     
 -6.899999999999999E-003   -0.393011848375246     
 -6.800000000000000E-003   -0.400030408371771     
 -6.699999999999999E-003   -0.407069013639265     
 -6.599999999999999E-003   -0.414123685647124     
 -6.499999999999999E-003   -0.421190280147866     
 -6.399999999999999E-003   -0.428264520956320     
 -6.299999999999999E-003   -0.435342088658915     
 -6.199999999999999E-003   -0.442418357339358     
 -6.100000000000000E-003   -0.449488708235947     
 -5.999999999999999E-003   -0.456548371375189     
 -5.899999999999999E-003   -0.463592367253819     
 -5.800000000000000E-003   -0.470615650727717     
 -5.699999999999999E-003   -0.477613046261175     
 -5.599999999999999E-003   -0.484579213038304     
 -5.499999999999999E-003   -0.491508658335319     
 -5.399999999999999E-003   -0.498395833342892     
 -5.299999999999999E-003   -0.505234961122016     
 -5.199999999999999E-003   -0.512020244865050     
 -5.099999999999999E-003   -0.518745711327543     
 -4.999999999999999E-003   -0.525405301451454     
 -4.899999999999999E-003   -0.531992748408001     
 -4.799999999999999E-003   -0.538501785383337     
 -4.699999999999999E-003   -0.544925958099803     
 -4.599999999999999E-003   -0.551258773111586     
 -4.499999999999999E-003   -0.557493576140997     
 -4.399999999999999E-003   -0.563623583463717     
 -4.299999999999999E-003   -0.569642003074640     
 -4.199999999999999E-003   -0.575541903073903     
 -4.099999999999999E-003   -0.581316264061029     
 -3.999999999999999E-003   -0.586957961106749     
 -3.899999999999999E-003   -0.592459844033768     
 -3.799999999999999E-003   -0.597814647348186     
 -3.699999999999999E-003   -0.603015000081767     
 -3.599999999999999E-003   -0.608053550852019     
 -3.499999999999999E-003   -0.612922879386977     
 -3.399999999999999E-003   -0.617615414939098     
 -3.299999999999999E-003   -0.622123662481383     
 -3.199999999999999E-003   -0.626440000400999     
 -3.099999999999999E-003   -0.630556782644081     
 -2.999999999999999E-003   -0.634466337558021     
 -2.899999999999999E-003   -0.638160976594114     
 -2.799999999999999E-003   -0.641633022950200     
 -2.699999999999999E-003   -0.644874793575278     
 -2.599999999999999E-003   -0.647878571485634     
 -2.499999999999999E-003   -0.650636637740906     
 -2.399999999999999E-003   -0.653141324155752     
 -2.299999999999999E-003   -0.655385016773083     
 -2.199999999999999E-003   -0.657360043884005     
 -2.099999999999999E-003   -0.659058840364953     
 -1.999999999999999E-003   -0.660473840567275     
 -1.899999999999999E-003   -0.661597571036245     
 -1.799999999999999E-003   -0.662422596645263     
 -1.699999999999999E-003   -0.662941562451725     
 -1.599999999999999E-003   -0.663147200487192     
 -1.499999999999999E-003   -0.663032324688001     
 -1.399999999999999E-003   -0.662589846281381     
 -1.299999999999999E-003   -0.661812851626714     
 -1.199999999999999E-003   -0.660694391090233     
 -1.099999999999999E-003   -0.659227754803377     
 -9.999999999999989E-004   -0.657406394205070     
 -8.999999999999990E-004   -0.655223769515212     
 -7.999999999999990E-004   -0.652673641174009     
 -6.999999999999989E-004   -0.649749892264469     
 -5.999999999999990E-004   -0.646446516774196     
 -4.999999999999989E-004   -0.642757764037338     
 -3.999999999999989E-004   -0.638678061684740     
 -2.999999999999989E-004   -0.634201970834813     
 -1.999999999999989E-004   -0.629324387913773     
 -9.999999999999892E-005   -0.624040300783403     
  1.084202172485504E-018   -0.618344978039260     
  1.000000000000011E-004   -0.612233939209778     
  2.000000000000011E-004   -0.605702930745564     
  3.000000000000011E-004   -0.598747957452259     
  4.000000000000011E-004   -0.591365255571409     
  5.000000000000011E-004   -0.583551397039881     
  6.000000000000011E-004   -0.575303232358061     
  7.000000000000011E-004   -0.566617861473220     
  8.000000000000011E-004   -0.557492672394412     
  9.000000000000012E-004   -0.547925393824050     
  1.000000000000001E-003   -0.537914071367879     
  1.100000000000001E-003   -0.527457101559193     
  1.200000000000001E-003   -0.516553114805174     
  1.300000000000001E-003   -0.505201169142903     
  1.400000000000001E-003   -0.493400620358373     
  1.500000000000001E-003   -0.481151186779425     
  1.600000000000001E-003   -0.468452948880144     
  1.700000000000001E-003   -0.455306344504437     
  1.800000000000001E-003   -0.441712196866041     
  1.900000000000001E-003   -0.427671633665633     
  2.000000000000001E-003   -0.413186197302030     
  2.100000000000001E-003   -0.398257848692929     
  2.200000000000001E-003   -0.382888905927382     
  2.300000000000001E-003   -0.367082062665250     
  2.400000000000001E-003   -0.350840421611877     
  2.500000000000001E-003   -0.334167472915321     
  2.600000000000001E-003   -0.317067138231337     
  2.700000000000001E-003   -0.299543746530512     
  2.800000000000001E-003   -0.281601973395510     
  2.900000000000001E-003   -0.263246959978983     
  3.000000000000001E-003   -0.244484217625472     
  3.100000000000001E-003   -0.225319718382011     
  3.200000000000001E-003   -0.205759806991622     
  3.300000000000001E-003   -0.185811240549113     
  3.400000000000001E-003   -0.165481176073545     
  3.500000000000001E-003   -0.144777196899629     
  3.600000000000001E-003   -0.123707296075788     
  3.700000000000001E-003   -0.102279871985536     
  3.800000000000001E-003   -8.050369413276730E-002
  3.900000000000001E-003   -5.838796715409857E-002
  4.000000000000001E-003   -3.594227384773381E-002
  4.100000000000001E-003   -1.317660534827030E-002
  4.200000000000001E-003    9.898681044587335E-003
  4.300000000000001E-003    3.327285513256396E-002
  4.400000000000001E-003    5.693477229630905E-002
  4.500000000000001E-003    8.087292046753373E-002
  4.600000000000002E-003    0.105075466517957     
  4.700000000000001E-003    0.129530165290138     
  4.800000000000001E-003    0.154224468240466     
  4.900000000000002E-003    0.179145448548741     
  5.000000000000001E-003    0.204279862192907     
  5.100000000000001E-003    0.229614126216766     
  5.200000000000001E-003    0.255134366213351     
  5.300000000000002E-003    0.280826373941290     
  5.400000000000001E-003    0.306675664450814     
  5.500000000000001E-003    0.332667461672241     
  5.600000000000002E-003    0.358786746666247     
  5.700000000000001E-003    0.385018184082247     
  5.800000000000001E-003    0.411346207685133     
  5.900000000000002E-003    0.437755019789020     
  6.000000000000001E-003    0.464228595159042     
  6.100000000000001E-003    0.490750664483301     
  6.200000000000002E-003    0.517304853088950     
  6.300000000000002E-003    0.543874488471070     
  6.400000000000001E-003    0.570442809705710     
  6.500000000000001E-003    0.596992811223845     
  6.600000000000002E-003    0.623507447306245     
  6.700000000000001E-003    0.649969471121181     
  6.800000000000001E-003    0.676361498378216     
  6.900000000000002E-003    0.702666179210441     
  7.000000000000001E-003    0.728865940898653     
  7.100000000000001E-003    0.754943242506989     
  7.200000000000002E-003    0.780880428064838     
  7.300000000000002E-003    0.806659889593748     
  7.400000000000001E-003    0.832263852993908     
  7.500000000000001E-003    0.857674713668242     
  7.600000000000002E-003    0.882874824163473     
  7.700000000000001E-003    0.907846522005578     
  7.800000000000001E-003    0.932572278623302     
  7.900000000000001E-003    0.957034575392464     
  8.000000000000002E-003    0.981216089302195     
  8.100000000000001E-003     1.00509951804174     
  8.200000000000001E-003     1.02866754066888     
  8.300000000000002E-003     1.05190323779384     
  8.400000000000001E-003     1.07478973943545     
  8.500000000000002E-003     1.09731023924216     
  8.600000000000002E-003     1.11944831521049     
  8.700000000000001E-003     1.14118758108733     
  8.800000000000002E-003     1.16251198974449     
  8.900000000000002E-003     1.18340572235091     
  9.000000000000001E-003     1.20385308927719     
  9.100000000000002E-003     1.22383890464484     
  9.200000000000002E-003     1.24334804784637     
  9.300000000000001E-003     1.26236583294392     
  9.400000000000002E-003     1.28087781078239     
  9.500000000000001E-003     1.29886990140404     
  9.600000000000001E-003     1.31632845662941     
  9.700000000000002E-003     1.33324016015061     
  9.800000000000001E-003     1.34959197280048     
  9.900000000000001E-003     1.36537127579146     
  1.000000000000000E-002     1.38056598758670     
  1.010000000000000E-002     1.39516429352103     
  1.020000000000000E-002     1.40915485049219     
  1.030000000000000E-002     1.42252690486893     
  1.040000000000000E-002     1.43526987601568     
  1.050000000000000E-002     1.44737386826668     
  1.060000000000000E-002     1.45882942247512     
  1.070000000000000E-002     1.46962758462006     
  1.080000000000000E-002     1.47975981745257     
  1.090000000000000E-002     1.48921815106466     
  1.100000000000000E-002     1.49799500660782     
  1.110000000000000E-002     1.50608356672519     
  1.120000000000000E-002     1.51347734893259     
  1.130000000000000E-002     1.52017046560737     
  1.140000000000000E-002     1.52615762116032     
  1.150000000000000E-002     1.53143391978595     
  1.160000000000000E-002     1.53599520865850     
  1.170000000000000E-002     1.53983783472683     
  1.180000000000000E-002     1.54295867434348     
  1.190000000000000E-002     1.54535517212846     
  1.200000000000000E-002     1.54702530479503     
  1.210000000000000E-002     1.54796775678519     
  1.220000000000000E-002     1.54818166378801     
  1.230000000000000E-002     1.54766673622567     
  1.240000000000000E-002     1.54642330318473     
  1.250000000000000E-002     1.54445236554267     
  1.260000000000000E-002     1.54175539297041     
  1.270000000000000E-002     1.53833427296049     
  1.280000000000000E-002     1.53419171499453     
  1.290000000000000E-002     1.52933087069972     
  1.300000000000000E-002     1.52375547606622     
  1.310000000000000E-002     1.51746976433223     
  1.320000000000000E-002     1.51047858076558     
  1.330000000000000E-002     1.50278734445242     
  1.340000000000000E-002     1.49440191082723     
  1.350000000000000E-002     1.48532878413498     
  1.360000000000000E-002     1.47557485436018     
  1.370000000000000E-002     1.46514763225346     
  1.380000000000000E-002     1.45405509552448     
  1.390000000000000E-002     1.44230574523787     
  1.400000000000000E-002     1.42990862243073     
  1.410000000000000E-002     1.41687318993515     
  1.420000000000000E-002     1.40320930964825     
  1.430000000000000E-002     1.38892742453072     
  1.440000000000000E-002     1.37403835998018     
  1.450000000000000E-002     1.35855337851369     
  1.460000000000000E-002     1.34248406664367     
  1.470000000000000E-002     1.32584262873920     
  1.480000000000000E-002     1.30864155446917     
  1.490000000000000E-002     1.29089365209303     
  1.500000000000000E-002     1.27261225282923     
  1.510000000000000E-002     1.25381089896672     
  1.520000000000000E-002     1.23450352884308     
  1.530000000000000E-002     1.21470437364256     
  1.540000000000000E-002     1.19442810841926     
  1.550000000000000E-002     1.17368954701170     
  1.560000000000000E-002     1.15250379009203     
  1.570000000000000E-002     1.13088629203450     
  1.580000000000000E-002     1.10885272642188     
  1.590000000000000E-002     1.08641905053041     
  1.600000000000000E-002     1.06360128520099     
  1.610000000000000E-002     1.04041568707790     
  1.620000000000000E-002     1.01687878781930     
  1.630000000000000E-002    0.993007111711803     
  1.640000000000000E-002    0.968817606210312     
  1.650000000000000E-002    0.944327029591000     
  1.660000000000000E-002    0.919552490671964     
  1.670000000000000E-002    0.894511004183726     
  1.680000000000000E-002    0.869219792721495     
  1.690000000000000E-002    0.843696116209827     
  1.700000000000000E-002    0.817957226200834     
  1.710000000000000E-002    0.792020430594535     
  1.720000000000000E-002    0.765903086942134     
  1.730000000000000E-002    0.739622497784015     
  1.740000000000000E-002    0.713195981719342     
  1.750000000000000E-002    0.686640810805697     
  1.760000000000000E-002    0.659974163508349     
  1.770000000000000E-002    0.633213182109068     
  1.780000000000000E-002    0.606374934887123     
  1.790000000000000E-002    0.579476418976523     
  1.800000000000000E-002    0.552534409008895     
  1.810000000000000E-002    0.525565632001463     
  1.820000000000000E-002    0.498586647086075     
  1.830000000000000E-002    0.471613842187788     
  1.840000000000000E-002    0.444663466273141     
  1.850000000000000E-002    0.417751517152651     
  1.860000000000000E-002    0.390893843645464     
  1.870000000000000E-002    0.364106067496178     