 -4.000000000000000E-002    0.000000000000000E+000
 -3.990000000000000E-002    0.000000000000000E+000
 -3.980000000000000E-002   -9.662416150542772E-012
 -3.970000000000000E-002   -4.861250909225861E-011
 -3.960000000000000E-002   -1.466935952613303E-010
 -3.950000000000000E-002   -3.446436662135478E-010
 -3.940000000000000E-002   -6.956656037936823E-010
 -3.930000000000000E-002   -1.268134925021167E-009
 -3.920000000000000E-002   -2.149245385535844E-009
 -3.910000000000000E-002   -3.448818046166037E-009
 -3.900000000000000E-002   -5.301919225190432E-009
 -3.890000000000000E-002   -7.868525965287591E-009
 -3.880000000000000E-002   -1.132837075215875E-008
 -3.870000000000000E-002   -1.586940716693207E-008
 -3.860000000000000E-002   -2.166910901471471E-008
 -3.850000000000000E-002   -2.886896128595635E-008
 -3.840000000000000E-002   -3.754389701515777E-008
 -3.830000000000000E-002   -4.766983036114458E-008
 -3.820000000000000E-002   -5.909360978258499E-008
 -3.810000000000000E-002   -7.151032997923508E-008
 -3.800000000000000E-002   -8.445292929305343E-008
 -3.790000000000000E-002   -9.729801941033813E-008
 -3.780000000000000E-002   -1.092903742148741E-007
 -3.770000000000000E-002   -1.195860510916778E-007
 -3.760000000000000E-002   -1.273115971080702E-007
 -3.750000000000000E-002   -1.316342130950515E-007
 -3.740000000000000E-002   -1.318356078290586E-007
 -3.730000000000000E-002   -1.273809873386940E-007
 -3.720000000000000E-002   -1.179746228474131E-007
 -3.710000000000000E-002   -1.035943991842959E-007
 -3.700000000000000E-002   -8.450014773578619E-008
 -3.690000000000000E-002   -6.121369500503560E-008
 -3.680000000000000E-002   -3.447251776741078E-008
 -3.670000000000000E-002   -5.162204773567855E-009
 -3.660000000000000E-002    2.576355517950457E-008
 -3.650000000000000E-002    5.736502290718190E-008
 -3.640000000000000E-002    8.878950788579548E-008
 -3.630000000000000E-002    1.193254481059448E-007
 -3.620000000000000E-002    1.484305088749075E-007
 -3.610000000000000E-002    1.757301356177437E-007
 -3.600000000000000E-002    2.009877916268185E-007
 -3.590000000000000E-002    2.240527670594100E-007
 -3.580000000000000E-002    2.447949195441400E-007
 -3.570000000000000E-002    2.630385299785076E-007
 -3.560000000000000E-002    2.785077894697646E-007
 -3.550000000000000E-002    2.907952747713406E-007
 -3.540000000000000E-002    2.993613759300821E-007
 -3.530000000000000E-002    3.035681229563534E-007
 -3.520000000000000E-002    3.027451590100687E-007
 -3.510000000000000E-002    2.962803338393904E-007
 -3.500000000000000E-002    2.837229757723305E-007
 -3.490000000000000E-002    2.648848107186433E-007
 -3.480000000000000E-002    2.399233411523741E-007
 -3.470000000000000E-002    2.093938751890369E-007
 -3.460000000000000E-002    1.742610267223569E-007
 -3.450000000000000E-002    1.358661281443776E-007
 -3.440000000000000E-002    9.585367397723054E-008
 -3.430000000000000E-002    5.606656367811136E-008
 -3.420000000000000E-002    1.842580645807917E-008
 -3.410000000000000E-002   -1.518746554056644E-008
 -3.400000000000000E-002   -4.302778150186638E-008
 -3.390000000000000E-002   -6.354344428418307E-008
 -3.380000000000000E-002   -7.538465003754913E-008
 -3.370000000000000E-002   -7.735914208999266E-008
 -3.360000000000000E-002   -6.833869281939008E-008
 -3.350000000000000E-002   -4.713095736816510E-008
 -3.340000000000000E-002   -1.233452598065943E-008
 -3.330000000000000E-002    3.779705472608932E-008
 -3.320000000000000E-002    1.054603449855560E-007
 -3.310000000000000E-002    1.933538351377389E-007
 -3.300000000000000E-002    3.046639694794648E-007
 -3.290000000000000E-002    4.429800294209555E-007
 -3.280000000000000E-002    6.121463607959776E-007
 -3.270000000000000E-002    8.160682392139642E-007
 -3.260000000000000E-002    1.058499130418173E-006
 -3.250000000000000E-002    1.342839797680307E-006
 -3.240000000000000E-002    1.671983644040143E-006
 -3.230000000000000E-002    2.048236013512332E-006
 -3.220000000000000E-002    2.473326847512160E-006
 -3.210000000000000E-002    2.948523681842715E-006
 -3.200000000000000E-002    3.474836641820006E-006
 -3.190000000000000E-002    4.053293696923550E-006
 -3.180000000000000E-002    4.685249439320996E-006
 -3.170000000000000E-002    5.372681700281293E-006
 -3.160000000000000E-002    6.118433648235134E-006
 -3.150000000000000E-002    6.926354761897337E-006
 -3.140000000000000E-002    7.801307958938629E-006
 -3.130000000000000E-002    8.749028414421951E-006
 -3.120000000000000E-002    9.775838455172424E-006
 -3.110000000000000E-002    1.088823923329783E-005
 -3.100000000000000E-002    1.209242360928819E-005
 -3.090000000000000E-002    1.339377206988401E-005
 -3.080000000000000E-002    1.479638840836850E-005
 -3.070000000000000E-002    1.630274639545182E-005
 -3.060000000000000E-002    1.791349975880922E-005
 -3.050000000000000E-002    1.962748985424622E-005
 -3.040000000000000E-002    2.144196922476250E-005
 -3.030000000000000E-002    2.335301811751935E-005
 -3.020000000000000E-002    2.535612430359901E-005
 -3.010000000000000E-002    2.744684729825624E-005
 -3.000000000000000E-002    2.962150484948048E-005
 -2.990000000000000E-002    3.187777816095998E-005
 -2.980000000000000E-002    3.421516838304425E-005
 -2.970000000000000E-002    3.663523139829930E-005
 -2.960000000000000E-002    3.914155661116229E-005
 -2.950000000000000E-002    4.173948626792100E-005
 -2.940000000000000E-002    4.443558231866934E-005
 -2.930000000000000E-002    4.723692578526990E-005
 -2.920000000000000E-002    5.015032586406456E-005
 -2.910000000000000E-002    5.318151585307010E-005
 -2.900000000000000E-002    5.633449199072355E-005
 -2.890000000000000E-002    5.961104035075816E-005
 -2.880000000000000E-002    6.301054206369953E-005
 -2.870000000000000E-002    6.653012078565180E-005
 -2.860000000000000E-002    7.016508980257162E-005
 -2.850000000000000E-002    7.390969480721378E-005
 -2.840000000000000E-002    7.775805995499878E-005
 -2.830000000000000E-002    8.170521952317986E-005
 -2.820000000000000E-002    8.574813933275824E-005
 -2.810000000000000E-002    8.988659520101812E-005
 -2.800000000000000E-002    9.412377525966078E-005
 -2.790000000000000E-002    9.846658056804621E-005
 -2.780000000000000E-002    1.029255171696599E-004
 -2.770000000000000E-002    1.075142609242515E-004
 -2.760000000000000E-002    1.122488900326222E-004
 -2.750000000000000E-002    1.171468632077630E-004
 -2.740000000000000E-002    1.222259618650400E-004
 -2.730000000000000E-002    1.275032448471685E-004
 -2.720000000000000E-002    1.329941563714050E-004
 -2.710000000000000E-002    1.387119454947951E-004
 -2.700000000000000E-002    1.446674357929894E-004
 -2.690000000000000E-002    1.508692307111240E-004
 -2.680000000000000E-002    1.573242758203123E-004
 -2.670000000000000E-002    1.640387161428849E-004
 -2.660000000000000E-002    1.710190622106665E-004
 -2.650000000000000E-002    1.782732986986206E-004
 -2.640000000000000E-002    1.858120399233626E-004
 -2.630000000000000E-002    1.936493729690332E-004
 -2.620000000000000E-002    2.018034311600022E-004
 -2.610000000000000E-002    2.102965249248880E-004
 -2.600000000000000E-002    2.191548579298471E-004
 -2.590000000000000E-002    2.284077856344747E-004
 -2.580000000000000E-002    2.380867869817882E-004
 -2.570000000000000E-002    2.482242052250424E-004
 -2.560000000000000E-002    2.588519505577325E-004
 -2.550000000000000E-002    2.700002605076021E-004
 -2.540000000000000E-002    2.816967389295662E-004
 -2.530000000000000E-002    2.939657377053122E-004
 -2.520000000000000E-002    3.068281858683086E-004
 -2.510000000000000E-002    3.203018408481459E-004
 -2.500000000000000E-002    3.344019906040984E-004
 -2.490000000000000E-002    3.491424673272270E-004
 -2.480000000000000E-002    3.645368057880578E-004
 -2.470000000000000E-002    3.805994319231459E-004
 -2.460000000000000E-002    3.973468780793099E-004
 -2.450000000000000E-002    4.147984442803013E-004
 -2.440000000000000E-002    4.329767114203933E-004
 -2.430000000000000E-002    4.519075717536812E-004
 -2.420000000000000E-002    4.716196499968136E-004
 -2.410000000000000E-002    4.921435457263178E-004
 -2.400000000000000E-002    5.135106269822964E-004
 -2.390000000000000E-002    5.357517116766411E-004
 -2.380000000000000E-002    5.588958153039751E-004
 -2.370000000000000E-002    5.829689217208483E-004
 -2.360000000000000E-002    6.079932497497770E-004
 -2.350000000000000E-002    6.339867231618282E-004
 -2.340000000000000E-002    6.609630672665987E-004
 -2.330000000000000E-002    6.889322013586824E-004
 -2.320000000000000E-002    7.179011220037504E-004
 -2.310000000000000E-002    7.478748895138866E-004
 -2.300000000000000E-002    7.788577802687481E-004
 -2.290000000000000E-002    8.108545714298507E-004
 -2.280000000000000E-002    8.438712650353836E-004
 -2.270000000000000E-002    8.779156378855966E-004
 -2.260000000000000E-002    9.129973590933197E-004
 -2.250000000000000E-002    9.491277208700600E-004
 -2.240000000000000E-002    9.863187438437975E-004
 -2.230000000000000E-002    1.024582133443982E-003
 -2.220000000000000E-002    1.063927796666123E-003
 -2.210000000000000E-002    1.104362532106011E-003
 -2.200000000000000E-002    1.145888676327420E-003
 -2.190000000000000E-002    1.188503017362265E-003
 -2.180000000000000E-002    1.232196267202711E-003
 -2.170000000000000E-002    1.276952646504262E-003
 -2.160000000000000E-002    1.322750152618124E-003
 -2.150000000000000E-002    1.369561075897326E-003
 -2.140000000000000E-002    1.417353091377240E-003
 -2.130000000000000E-002    1.466090332402252E-003
 -2.120000000000000E-002    1.515734248954738E-003
 -2.110000000000000E-002    1.566244701883863E-003
 -2.100000000000000E-002    1.617580387764452E-003
 -2.090000000000000E-002    1.669699195604945E-003
 -2.080000000000000E-002    1.722557404073390E-003
 -2.070000000000000E-002    1.776109481882388E-003
 -2.060000000000000E-002    1.830306095694986E-003
 -2.050000000000000E-002    1.885093062837701E-003
 -2.040000000000000E-002    1.940409342225562E-003
 -2.030000000000000E-002    1.996185451283897E-003
 -2.020000000000000E-002    2.052341803563960E-003
 -2.010000000000000E-002    2.108787604099883E-003
 -2.000000000000000E-002    2.165420141265749E-003
 -1.990000000000000E-002    2.222124257284281E-003
 -1.980000000000000E-002    2.278772700221280E-003
 -1.970000000000000E-002    2.335226610853973E-003
 -1.960000000000000E-002    2.391335955019166E-003
 -1.950000000000000E-002    2.446941221033538E-003
 -1.940000000000000E-002    2.501873155152468E-003
 -1.930000000000000E-002    2.555953876532235E-003
 -1.920000000000000E-002    2.608996661682295E-003
 -1.910000000000000E-002    2.660805333558736E-003
 -1.900000000000000E-002    2.711173903471070E-003
 -1.890000000000000E-002    2.759884482506114E-003
 -1.880000000000000E-002    2.806705736474264E-003
 -1.870000000000000E-002    2.851390028526217E-003
 -1.860000000000000E-002    2.893672139038887E-003
 -1.850000000000000E-002    2.933266191944253E-003
 -1.840000000000000E-002    2.969864323748395E-003
 -1.830000000000000E-002    3.003134172200400E-003
 -1.820000000000000E-002    3.032718926726584E-003
 -1.810000000000000E-002    3.058235878456801E-003
 -1.800000000000000E-002    3.079276966110673E-003
 -1.790000000000000E-002    3.095408619207197E-003
 -1.780000000000000E-002    3.106172916546436E-003
 -1.770000000000000E-002    3.111087923989317E-003
 -1.760000000000000E-002    3.109648088182204E-003
 -1.750000000000000E-002    3.101325432020738E-003
 -1.740000000000000E-002    3.085568082791720E-003
 -1.730000000000000E-002    3.061800766408145E-003
 -1.720000000000000E-002    3.029423608126836E-003
 -1.710000000000000E-002    2.987809629091055E-003
 -1.700000000000000E-002    2.936303223090628E-003
 -1.690000000000000E-002    2.874217693215197E-003
 -1.680000000000000E-002    2.800832389912114E-003
 -1.670000000000000E-002    2.715390643552454E-003
 -1.660000000000000E-002    2.617096833437445E-003
 -1.650000000000000E-002    2.505114696430228E-003
 -1.640000000000000E-002    2.378565613966220E-003
 -1.630000000000000E-002    2.236528159039114E-003
 -1.620000000000000E-002    2.078037105680375E-003
 -1.610000000000000E-002    1.902083536672479E-003
 -1.600000000000000E-002    1.707615227893883E-003
 -1.590000000000000E-002    1.493536379070998E-003
 -1.580000000000000E-002    1.258708935192080E-003
 -1.570000000000000E-002    1.001952397225845E-003
 -1.560000000000000E-002    7.220425987738992E-004
 -1.550000000000000E-002    4.177126431574461E-004
 -1.540000000000000E-002    8.765077111928862E-005
 -1.530000000000000E-002   -2.695003607300811E-004
 -1.520000000000000E-002   -6.551483918739011E-004
 -1.510000000000000E-002   -1.070750923697183E-003
 -1.500000000000000E-002   -1.517818739721736E-003
 -1.490000000000000E-002   -1.997919678236084E-003
 -1.480000000000000E-002   -2.512679269571356E-003
 -1.470000000000000E-002   -3.063785252414105E-003
 -1.460000000000000E-002   -3.652986849252889E-003
 -1.450000000000000E-002   -4.282098865444778E-003
 -1.440000000000000E-002   -4.952999097150030E-003
 -1.430000000000000E-002   -5.667630789444709E-003
 -1.420000000000000E-002   -6.428002354657885E-003
 -1.410000000000000E-002   -7.236186562223188E-003
 -1.400000000000000E-002   -8.094318366083606E-003
 -1.390000000000000E-002   -9.004597060078752E-003
 -1.380000000000000E-002   -9.969281445672194E-003
 -1.370000000000000E-002   -1.099069673910699E-002
 -1.360000000000000E-002   -1.207122793972182E-002
 -1.350000000000000E-002   -1.321332471881099E-002
 -1.340000000000000E-002   -1.441950015262468E-002
 -1.330000000000000E-002   -1.569233273900684E-002
 -1.320000000000000E-002   -1.703446560967760E-002
 -1.310000000000000E-002   -1.844861628357992E-002
 -1.300000000000000E-002   -1.993757006486888E-002
 -1.290000000000000E-002   -2.150418358953929E-002
 -1.280000000000000E-002   -2.315138825885798E-002
 -1.270000000000000E-002   -2.488219157903192E-002
 -1.260000000000000E-002   -2.669967143855904E-002
 -1.250000000000000E-002   -2.860697708107142E-002
 -1.240000000000000E-002   -3.060733873018152E-002
 -1.230000000000000E-002   -3.270405258084735E-002
 -1.220000000000000E-002   -3.490048730492468E-002
 -1.210000000000000E-002   -3.720007256052242E-002
 -1.200000000000000E-002   -3.960630958373559E-002
 -1.190000000000000E-002   -4.212276210368474E-002
 -1.180000000000000E-002   -4.475305779069965E-002
 -1.170000000000000E-002   -4.750087553963259E-002
 -1.160000000000000E-002   -5.036995612081769E-002
 -1.150000000000000E-002   -5.336410313088225E-002
 -1.140000000000000E-002   -5.648717059709230E-002
 -1.130000000000000E-002   -5.974307478725722E-002
 -1.120000000000000E-002   -6.313578112329389E-002
 -1.110000000000000E-002   -6.666931581586273E-002
 -1.100000000000000E-002   -7.034775540412617E-002
 -1.090000000000000E-002   -7.417523026963260E-002
 -1.080000000000000E-002   -7.815592400487718E-002
 -1.070000000000000E-002   -8.229406533657140E-002
 -1.060000000000000E-002   -8.659392275993444E-002
 -1.050000000000000E-002   -9.105982491116171E-002
 -1.040000000000000E-002   -9.569611407542755E-002
 -1.030000000000000E-002   -0.100507180430881     
 -1.020000000000000E-002   -0.105497428293518     
 -1.010000000000000E-002   -0.110671288649981     
 -1.000000000000000E-002   -0.116033210167296     
 -9.899999999999999E-003   -0.121587644851889     
 -9.800000000000000E-003   -0.127339056111302     
 -9.699999999999999E-003   -0.133291902116803     
 -9.599999999999999E-003   -0.139450637494870     
 -9.500000000000000E-003   -0.145819716115976     
 -9.399999999999999E-003   -0.152403575289198     
 -9.299999999999999E-003   -0.159206641089881     
 -9.200000000000000E-003   -0.166233303223332     
 -9.099999999999999E-003   -0.173487941141755     
 -8.999999999999999E-003   -0.180974908018922     
 -8.900000000000000E-003   -0.188698509465469     
 -8.799999999999999E-003   -0.196663006296160     
 -8.699999999999999E-003   -0.204872630254559     
 -8.600000000000000E-003   -0.213331554071270     
 -8.499999999999999E-003   -0.222043856740871     
 -8.399999999999999E-003   -0.231013581259643     
 -8.300000000000000E-003   -0.240244672549860     
 -8.199999999999999E-003   -0.249740964423651     
 -8.100000000000000E-003   -0.259506220258923     
 -8.000000000000000E-003   -0.269544068374972     
 -7.899999999999999E-003   -0.279858019772909     
 -7.800000000000000E-003   -0.290451480364959     
 -7.699999999999999E-003   -0.301327694063625     
 -7.599999999999999E-003   -0.312489770377154     
 -7.499999999999999E-003   -0.323940664820645     
 -7.399999999999999E-003   -0.335683179824057     
 -7.299999999999999E-003   -0.347719974837923     
 -7.199999999999999E-003   -0.360053540673193     
 -7.100000000000000E-003   -0.372686134415923     
 -6.999999999999999E-003   -0.385619871678738     
 -6.899999999999999E-003   -0.398856651881912     
 -6.800000000000000E-003   -0.412398166804441     
 -6.699999999999999E-003   -0.426245874984546     
 -6.599999999999999E-003   -0.440401010224070     
 -6.499999999999999E-003   -0.454864581211778     
 -6.399999999999999E-003   -0.469637289487719     
 -6.299999999999999E-003   -0.484719620210236     
 -6.199999999999999E-003   -0.500111724647705     
 -6.100000000000000E-003   -0.515813536805791     
 -5.999999999999999E-003   -0.531824623081100     
 -5.899999999999999E-003   -0.548144281229593     
 -5.800000000000000E-003   -0.564771484195965     
 -5.699999999999999E-003   -0.581704862593655     
 -5.599999999999999E-003   -0.598942720442042     
 -5.499999999999999E-003   -0.616483010194985     
 -5.399999999999999E-003   -0.634323386736669     
 -5.299999999999999E-003   -0.652461057789020     
 -5.199999999999999E-003   -0.670892925774229     
 -5.099999999999999E-003   -0.689615581820021     
 -4.999999999999999E-003   -0.708625029137065     
 -4.899999999999999E-003   -0.727917101547691     
 -4.799999999999999E-003   -0.747487084719510     
 -4.699999999999999E-003   -0.767329935391602     
 -4.599999999999999E-003   -0.787440152310480     
 -4.499999999999999E-003   -0.807811737641328     
 -4.399999999999999E-003   -0.828438354021492     
 -4.299999999999999E-003   -0.849313210770180     
 -4.199999999999999E-003   -0.870428950801165     
 -4.099999999999999E-003   -0.891777838007447     
 -3.999999999999999E-003   -0.913351682603548     
 -3.899999999999999E-003   -0.935141783860153     
 -3.799999999999999E-003   -0.957138974429672     
 -3.699999999999999E-003   -0.979333619364115     
 -3.599999999999999E-003    -1.00171562175297     
 -3.499999999999999E-003    -1.02427440233469     
 -3.399999999999999E-003    -1.04699891008114     
 -3.299999999999999E-003    -1.06987752375568     
 -3.199999999999999E-003    -1.09289827983038     
 -3.099999999999999E-003    -1.11604859727890     
 -2.999999999999999E-003    -1.13931543238027     
 -2.899999999999999E-003    -1.16268528719173     
 -2.799999999999999E-003    -1.18614420438799     
 -2.699999999999999E-003    -1.20967771579497     
 -2.599999999999999E-003    -1.23327073643995     
 -2.499999999999999E-003    -1.25690775360013     
 -2.399999999999999E-003    -1.28057286413195     
 -2.299999999999999E-003    -1.30424963117374     
 -2.199999999999999E-003    -1.32792102440655     
 -2.099999999999999E-003    -1.35156971377236     
 -1.999999999999999E-003    -1.37517772917514     
 -1.899999999999999E-003    -1.39872681250952     
 -1.799999999999999E-003    -1.42219824278935     
 -1.699999999999999E-003    -1.44557276525870     
 -1.599999999999999E-003    -1.46883065920851     
 -1.499999999999999E-003    -1.49195197298333     
 -1.399999999999999E-003    -1.51491628133653     
 -1.299999999999999E-003    -1.53770261572477     
 -1.199999999999999E-003    -1.56028981311804     
 -1.099999999999999E-003    -1.58265629700924     
 -9.999999999999989E-004    -1.60478003308068     
 -8.999999999999990E-004    -1.62663878875472     
 -7.999999999999990E-004    -1.64820994718178     
 -6.999999999999989E-004    -1.66947055399919     
 -5.999999999999990E-004    -1.69039744636589     
 -4.999999999999989E-004    -1.71096711627050     
 -3.999999999999989E-004    -1.73115582373453     
 -2.999999999999989E-004    -1.75093948067439     
 -1.999999999999989E-004    -1.77029386223631     
 -9.999999999999892E-005    -1.78919466152245     
  1.084202172485504E-018    -1.80761712023765     
  1.000000000000011E-004    -1.82553667526159     
  2.000000000000011E-004    -1.84292843215193     
  3.000000000000011E-004    -1.85976736439053     
  4.000000000000011E-004    -1.87602848860084     
  5.000000000000011E-004    -1.89168687134244     
  6.000000000000011E-004    -1.90671728914597     
  7.000000000000011E-004    -1.92109473480058     
  8.000000000000011E-004    -1.93479417933384     
  9.000000000000012E-004    -1.94779061496680     
  1.000000000000001E-003    -1.96005917623831     
  1.100000000000001E-003    -1.97157515672394     
  1.200000000000001E-003    -1.98231387802823     
  1.300000000000001E-003    -1.99225080793398     
  1.400000000000001E-003    -2.00136175003403     
  1.500000000000001E-003    -2.00962270854247     
  1.600000000000001E-003    -2.01700989189689     
  1.700000000000001E-003    -2.02349980772524     
  1.800000000000001E-003    -2.02906929801390     
  1.900000000000001E-003    -2.03369553180349     
  2.000000000000001E-003    -2.03735623599444     
  2.100000000000001E-003    -2.04002936431373     
  2.200000000000001E-003    -2.04169355885537     
  2.300000000000001E-003    -2.04232771140395     
  2.400000000000001E-003    -2.04191129282932     
  2.500000000000001E-003    -2.04042462658998     
  2.600000000000001E-003    -2.03784804917399     
  2.700000000000001E-003    -2.03416304273901     
  2.800000000000001E-003    -2.02935157845023     
  2.900000000000001E-003    -2.02339621234929     
  3.000000000000001E-003    -2.01628036027281     
  3.100000000000001E-003    -2.00798806588890     
  3.200000000000001E-003    -1.99850405032891     
  3.300000000000001E-003    -1.98781414179411     
  3.400000000000001E-003    -1.97590461393556     
  3.500000000000001E-003    -1.96276277804539     
  3.600000000000001E-003    -1.94837689063908     
  3.700000000000001E-003    -1.93273608881162     
  3.800000000000001E-003    -1.91583033591268     
  3.900000000000001E-003    -1.89765061039095     
  4.000000000000001E-003    -1.87818898601623     
  4.100000000000001E-003    -1.85743838118386     
  4.200000000000001E-003    -1.83539293220360     
  4.300000000000001E-003    -1.81204781270619     
  4.400000000000001E-003    -1.78739915289931     
  4.500000000000001E-003    -1.76144438945752     
  4.600000000000002E-003    -1.73418192515406     
  4.700000000000001E-003    -1.70561137688245     
  4.800000000000001E-003    -1.67573346481042     
  4.900000000000002E-003    -1.64455010980533     
  5.000000000000001E-003    -1.61206432359746     
  5.100000000000001E-003    -1.57828048008188     
  5.200000000000001E-003    -1.54320400595054     
  5.300000000000002E-003    -1.50684165012198     
  5.400000000000001E-003    -1.46920128480175     
  5.500000000000001E-003    -1.43029206172189     
  5.600000000000002E-003    -1.39012437215623     
  5.700000000000001E-003    -1.34870985798573     
  5.800000000000001E-003    -1.30606147447743     
  5.900000000000002E-003    -1.26219334808539     
  6.000000000000001E-003    -1.21712078787585     
  6.100000000000001E-003    -1.17086060694661     
  6.200000000000002E-003    -1.12343056902985     
  6.300000000000002E-003    -1.07484993290258     
  6.400000000000001E-003    -1.02513906488751     
  6.500000000000001E-003   -0.974319629309233     
  6.600000000000002E-003   -0.922414350703468     
  6.700000000000001E-003   -0.869447397403138     
  6.800000000000001E-003   -0.815443971223168     
  6.900000000000002E-003   -0.760430333443530     
  7.000000000000001E-003   -0.704434160992249     
  7.100000000000001E-003   -0.647484024742905     
  7.200000000000002E-003   -0.589609833824101     
  7.300000000000002E-003   -0.530842370248792     
  7.400000000000001E-003   -0.471213660100526     
  7.500000000000001E-003   -0.410756733133481     
  7.600000000000002E-003   -0.349505581320232     
  7.700000000000001E-003   -0.287495336386442     
  7.800000000000001E-003   -0.224761952840421     
  7.900000000000001E-003   -0.161342453992107     
  8.000000000000002E-003   -9.727476677574466E-002
  8.100000000000001E-003   -3.259764280938056E-002
  8.200000000000001E-003    3.264932191991969E-002
  8.300000000000002E-003    9.842567899568400E-002
  8.400000000000001E-003    0.164690206765030     
  8.500000000000002E-003    0.231401005646890     
  8.600000000000002E-003    0.298515462113975     
  8.700000000000001E-003    0.365990311872975     
  8.800000000000002E-003    0.433781688106052     
  8.900000000000002E-003    0.501845212603098     
  9.000000000000001E-003    0.570135929696581     
  9.100000000000002E-003    0.638608468725481     
  9.200000000000002E-003    0.707217000725692     
  9.300000000000001E-003    0.775915369373415     
  9.400000000000002E-003    0.844656993407698     
  9.500000000000001E-003    0.913395046730903     
  9.600000000000001E-003    0.982082468427618     
  9.700000000000002E-003     1.05067196074260     
  9.800000000000001E-003     1.11911608142906     
  9.900000000000001E-003     1.18736732207919     
  1.000000000000000E-002     1.25537816786036     
  1.010000000000000E-002     1.32310104155353     
  1.020000000000000E-002     1.39048852839845     
  1.030000000000000E-002     1.45749314929330     
  1.040000000000000E-002     1.52406773039985     
  1.050000000000000E-002     1.59016531311977     
  1.060000000000000E-002     1.65573908534782     
  1.070000000000000E-002     1.72074266040834     
  1.080000000000000E-002     1.78513007787529     
  1.090000000000000E-002     1.84885576942272     
  1.100000000000000E-002     1.91187455591329     
  1.110000000000000E-002     1.97414174877891     
  1.120000000000000E-002     2.03561342713212     
  1.130000000000000E-002     2.09624607107277     
  1.140000000000000E-002     2.15599687068286     
  1.150000000000000E-002     2.21482380275887     
  1.160000000000000E-002     2.27268554507613     
  1.170000000000000E-002     2.32954155356892     
  1.180000000000000E-002     2.38535199096669     
  1.190000000000000E-002     2.44007801445721     
  1.200000000000000E-002     2.49368187709852     
  1.210000000000000E-002     2.54612641325535     
  1.220000000000000E-002     2.59737597760331     
  1.230000000000000E-002     2.64739549832434     
  1.240000000000000E-002     2.69615131626137     
  1.250000000000000E-002     2.74361054096866     
  1.260000000000000E-002     2.78974173245167     
  1.270000000000000E-002     2.83451464478292     
  1.280000000000000E-002     2.87790011235306     
  1.290000000000000E-002     2.91987043478146     
  1.300000000000000E-002     2.96039879532616     
  1.310000000000000E-002     2.99946008924280     
  1.320000000000000E-002     3.03703016470789     
  1.330000000000000E-002     3.07308647669628     
  1.340000000000000E-002     3.10760793206266     
  1.350000000000000E-002     3.14057448509291     
  1.360000000000000E-002     3.17196780576065     
  1.370000000000000E-002     3.20177090738166     
  1.380000000000000E-002     3.22996798126726     
  1.390000000000000E-002     3.25654482057821     
  1.400000000000000E-002     3.28148887499526     
  1.410000000000000E-002     3.30478874701427     
  1.420000000000000E-002     3.32643464920791     
  1.430000000000000E-002     3.34641852699808     
  1.440000000000000E-002     3.36473328999671     
  1.450000000000000E-002     3.38137384016141     
  1.460000000000000E-002     3.39633632881885     
  1.470000000000000E-002     3.40961825401268     
  1.480000000000000E-002     3.42121890270990     
  1.490000000000000E-002     3.43113887521243     
  1.500000000000000E-002     3.43937996864746     
  1.510000000000000E-002     3.44594592948729     
  1.520000000000000E-002     3.45084165836748     
  1.530000000000000E-002     3.45407343547677     
  1.540000000000000E-002     3.45564911017199     
  1.550000000000000E-002     3.45557769356222     
  1.560000000000000E-002     3.45386970702814     
  1.570000000000000E-002     3.45053706318146     
  1.580000000000000E-002     3.44559297530644     
  1.590000000000000E-002     3.43905183891159     
  1.600000000000000E-002     3.43092929782894     
  1.610000000000000E-002     3.42124257215156     
  1.620000000000000E-002     3.41000968562772     
  1.630000000000000E-002     3.39725014599818     
  1.640000000000000E-002     3.38298475573050     
  1.650000000000000E-002     3.36723527088478     
  1.660000000000000E-002     3.35002431459383     
  1.670000000000000E-002     3.33137607644880     
  1.680000000000000E-002     3.31131545847253     
  1.690000000000000E-002     3.28986849301474     
  1.700000000000000E-002     3.26706203676361     
  1.710000000000000E-002     3.24292376821142     
  1.720000000000000E-002     3.21748260821246     
  1.730000000000000E-002     3.19076827184559     
  1.740000000000000E-002     3.16281077043299     
  1.750000000000000E-002     3.13364151893388     
  1.760000000000000E-002     3.10329226784035     
  1.770000000000000E-002     3.07179549602135     
  1.780000000000000E-002     3.03918438585867     
  1.790000000000000E-002     3.00549273280916     
  1.800000000000000E-002     2.97075481431708     
  1.810000000000000E-002     2.93500546716496     
  1.820000000000000E-002     2.89827983621531     
  1.830000000000000E-002     2.86061380227011     
  1.840000000000000E-002     2.82204343111761     
  1.850000000000000E-002     2.78260523461072     
  1.860000000000000E-002     2.74233584694296     
  1.870000000000000E-002     2.70127230635081     