 -4.000000000000000E-002    0.000000000000000E+000
 -3.990000000000000E-002    0.000000000000000E+000
 -3.980000000000000E-002    0.000000000000000E+000
 -3.970000000000000E-002    0.000000000000000E+000
 -3.960000000000000E-002    0.000000000000000E+000
 -3.950000000000000E-002    0.000000000000000E+000
 -3.940000000000000E-002    0.000000000000000E+000
 -3.930000000000000E-002    0.000000000000000E+000
 -3.920000000000000E-002    0.000000000000000E+000
 -3.910000000000000E-002    0.000000000000000E+000
 -3.900000000000000E-002    0.000000000000000E+000
 -3.890000000000000E-002    0.000000000000000E+000
 -3.880000000000000E-002    0.000000000000000E+000
 -3.870000000000000E-002    0.000000000000000E+000
 -3.860000000000000E-002    0.000000000000000E+000
 -3.850000000000000E-002    0.000000000000000E+000
 -3.840000000000000E-002    0.000000000000000E+000
 -3.830000000000000E-002    0.000000000000000E+000
 -3.820000000000000E-002    0.000000000000000E+000
 -3.810000000000000E-002    0.000000000000000E+000
 -3.800000000000000E-002    0.000000000000000E+000
 -3.790000000000000E-002    0.000000000000000E+000
 -3.780000000000000E-002    0.000000000000000E+000
 -3.770000000000000E-002    0.000000000000000E+000
 -3.760000000000000E-002    0.000000000000000E+000
 -3.750000000000000E-002    0.000000000000000E+000
 -3.740000000000000E-002    0.000000000000000E+000
 -3.730000000000000E-002    0.000000000000000E+000
 -3.720000000000000E-002    0.000000000000000E+000
 -3.710000000000000E-002    0.000000000000000E+000
 -3.700000000000000E-002    0.000000000000000E+000
 -3.690000000000000E-002    0.000000000000000E+000
 -3.680000000000000E-002    0.000000000000000E+000
 -3.670000000000000E-002    0.000000000000000E+000
 -3.660000000000000E-002    0.000000000000000E+000
 -3.650000000000000E-002    0.000000000000000E+000
 -3.640000000000000E-002    0.000000000000000E+000
 -3.630000000000000E-002    0.000000000000000E+000
 -3.620000000000000E-002    0.000000000000000E+000
 -3.610000000000000E-002    0.000000000000000E+000
 -3.600000000000000E-002    0.000000000000000E+000
 -3.590000000000000E-002    0.000000000000000E+000
 -3.580000000000000E-002    0.000000000000000E+000
 -3.570000000000000E-002    0.000000000000000E+000
 -3.560000000000000E-002    0.000000000000000E+000
 -3.550000000000000E-002    0.000000000000000E+000
 -3.540000000000000E-002    0.000000000000000E+000
 -3.530000000000000E-002    0.000000000000000E+000
 -3.520000000000000E-002    0.000000000000000E+000
 -3.510000000000000E-002    0.000000000000000E+000
 -3.500000000000000E-002    0.000000000000000E+000
 -3.490000000000000E-002    0.000000000000000E+000
 -3.480000000000000E-002    0.000000000000000E+000
 -3.470000000000000E-002    0.000000000000000E+000
 -3.460000000000000E-002    0.000000000000000E+000
 -3.450000000000000E-002    0.000000000000000E+000
 -3.440000000000000E-002    0.000000000000000E+000
 -3.430000000000000E-002    0.000000000000000E+000
 -3.420000000000000E-002    0.000000000000000E+000
 -3.410000000000000E-002    0.000000000000000E+000
 -3.400000000000000E-002    0.000000000000000E+000
 -3.390000000000000E-002    0.000000000000000E+000
 -3.380000000000000E-002    0.000000000000000E+000
 -3.370000000000000E-002    0.000000000000000E+000
 -3.360000000000000E-002    0.000000000000000E+000
 -3.350000000000000E-002    0.000000000000000E+000
 -3.340000000000000E-002    0.000000000000000E+000
 -3.330000000000000E-002    0.000000000000000E+000
 -3.320000000000000E-002    0.000000000000000E+000
 -3.310000000000000E-002    0.000000000000000E+000
 -3.300000000000000E-002    0.000000000000000E+000
 -3.290000000000000E-002    0.000000000000000E+000
 -3.280000000000000E-002    0.000000000000000E+000
 -3.270000000000000E-002    0.000000000000000E+000
 -3.260000000000000E-002    0.000000000000000E+000
 -3.250000000000000E-002    0.000000000000000E+000
 -3.240000000000000E-002    0.000000000000000E+000
 -3.230000000000000E-002    7.434397752773326E-048
 -3.220000000000000E-002   -3.563362220258147E-048
 -3.210000000000000E-002   -3.609871355881338E-047
 -3.200000000000000E-002   -3.918543900747418E-047
 -3.190000000000000E-002   -6.457751809257813E-047
 -3.180000000000000E-002   -3.872439408841951E-047
 -3.170000000000000E-002   -5.953763394479793E-047
 -3.160000000000000E-002    1.017474006067842E-046
 -3.150000000000000E-002   -2.087183745993473E-046
 -3.140000000000000E-002   -8.558155818154754E-047
 -3.130000000000000E-002   -1.367432846074505E-045
 -3.120000000000000E-002   -2.119082483870294E-045
 -3.110000000000000E-002   -3.760238117492297E-045
 -3.100000000000000E-002   -6.783560612677540E-045
 -3.090000000000000E-002   -9.825540475720669E-045
 -3.080000000000000E-002   -1.394559053930305E-044
 -3.070000000000000E-002   -1.929494326255215E-044
 -3.060000000000000E-002   -2.396793004205319E-044
 -3.050000000000000E-002   -2.529733988056301E-044
 -3.040000000000000E-002   -1.855835468211435E-044
 -3.030000000000000E-002    5.400218613741352E-045
 -3.020000000000000E-002    5.848270329847382E-044
 -3.010000000000000E-002    1.568506846434727E-043
 -3.000000000000000E-002    3.253517706422754E-043
 -2.990000000000000E-002    5.930310763760920E-043
 -2.980000000000000E-002    9.909702381922018E-043
 -2.970000000000000E-002    1.547884184661938E-042
 -2.960000000000000E-002    2.273412364649799E-042
 -2.950000000000000E-002    3.132897958297651E-042
 -2.940000000000000E-002    4.014394833095497E-042
 -2.930000000000000E-002    4.667498902376180E-042
 -2.920000000000000E-002    4.630136272117115E-042
 -2.910000000000000E-002    3.133733947459171E-042
 -2.900000000000000E-002   -9.978174481007278E-043
 -2.890000000000000E-002   -9.432095642126468E-042
 -2.880000000000000E-002   -2.435182367057729E-041
 -2.870000000000000E-002   -4.834429401119582E-041
 -2.860000000000000E-002   -8.405487295150593E-041
 -2.850000000000000E-002   -1.334561214742785E-040
 -2.840000000000000E-002   -1.965731635694197E-040
 -2.830000000000000E-002   -2.695064232298018E-040
 -2.820000000000000E-002   -3.416316059953517E-040
 -2.810000000000000E-002   -3.920039100110848E-040
 -2.800000000000000E-002   -3.852485605716501E-040
 -2.790000000000000E-002   -2.676272242936977E-040
 -2.780000000000000E-002    3.546256279652696E-041
 -2.770000000000000E-002    6.185456687513142E-040
 -2.760000000000000E-002    1.588885789462046E-039
 -2.750000000000000E-002    3.049508921692490E-039
 -2.740000000000000E-002    5.068533850276905E-039
 -2.730000000000000E-002    7.631262241534651E-039
 -2.720000000000000E-002    1.057312128483160E-038
 -2.710000000000000E-002    1.349499353883718E-038
 -2.700000000000000E-002    1.566823128679787E-038
 -2.690000000000000E-002    1.594501498993812E-038
 -2.680000000000000E-002    1.270051005183471E-038
 -2.670000000000000E-002    3.845443324741519E-039
 -2.660000000000000E-002   -1.304068951084307E-038
 -2.650000000000000E-002   -4.039805816131642E-038
 -2.640000000000000E-002   -8.013993391866576E-038
 -2.630000000000000E-002   -1.328304282789144E-037
 -2.620000000000000E-002   -1.965821248852813E-037
 -2.610000000000000E-002   -2.657319063305055E-037
 -2.600000000000000E-002   -3.294434161124737E-037
 -2.590000000000000E-002   -3.705005701278644E-037
 -2.580000000000000E-002   -3.646845880523690E-037
 -2.570000000000000E-002   -2.812475449956548E-037
 -2.560000000000000E-002   -8.507238849081044E-038
 -2.550000000000000E-002    2.588996021208377E-037
 -2.540000000000000E-002    7.785399994656690E-037
 -2.530000000000000E-002    1.484603293776017E-036
 -2.520000000000000E-002    2.358442081951895E-036
 -2.510000000000000E-002    3.338583482394995E-036
 -2.500000000000000E-002    4.308301986363228E-036
 -2.490000000000000E-002    5.087286396366112E-036
 -2.480000000000000E-002    5.431282670318988E-036
 -2.470000000000000E-002    5.043924292915037E-036
 -2.460000000000000E-002    3.604521501643358E-036
 -2.450000000000000E-002    8.140108578589817E-037
 -2.440000000000000E-002   -3.541565936332217E-036
 -2.430000000000000E-002   -9.514927913294893E-036
 -2.420000000000000E-002   -1.691880077771900E-035
 -2.410000000000000E-002   -2.526005397781150E-035
 -2.400000000000000E-002   -3.370663553931494E-035
 -2.390000000000000E-002   -4.110888400293579E-035
 -2.380000000000000E-002   -4.609381845746894E-035
 -2.370000000000000E-002   -4.724129331718701E-035
 -2.360000000000000E-002   -4.333379684821600E-035
 -2.350000000000000E-002   -3.364675704864785E-035
 -2.340000000000000E-002   -1.821666963290833E-035
 -2.330000000000000E-002    2.005055520223540E-036
 -2.320000000000000E-002    2.522518196941961E-035
 -2.310000000000000E-002    4.922155516347899E-035
 -2.300000000000000E-002    7.217698606426778E-035
 -2.290000000000000E-002    9.393845973903209E-035
 -2.280000000000000E-002    1.175790260155561E-034
 -2.270000000000000E-002    1.509642335961006E-034
 -2.260000000000000E-002    2.078191445955205E-034
 -2.250000000000000E-002    3.075910251730329E-034
 -2.240000000000000E-002    4.732639133143307E-034
 -2.230000000000000E-002    7.262812510010288E-034
 -2.220000000000000E-002    1.077951141013502E-033
 -2.210000000000000E-002    1.517237028905366E-033
 -2.200000000000000E-002    1.995715327562618E-033
 -2.190000000000000E-002    2.411716211453626E-033
 -2.180000000000000E-002    2.597158017427750E-033
 -2.170000000000000E-002    2.312132378412184E-033
 -2.160000000000000E-002    1.253560807471912E-033
 -2.150000000000000E-002   -9.152513551182965E-034
 -2.140000000000000E-002   -4.508115576671920E-033
 -2.130000000000000E-002   -9.729105049038423E-033
 -2.120000000000000E-002   -1.655684464314826E-032
 -2.110000000000000E-002   -2.460875981059125E-032
 -2.100000000000000E-002   -3.300352885090470E-032
 -2.090000000000000E-002   -4.025050453960372E-032
 -2.080000000000000E-002   -4.420482449471157E-032
 -2.070000000000000E-002   -4.213382043508847E-032
 -2.060000000000000E-002   -3.094098120748070E-032
 -2.050000000000000E-002   -7.585059806927641E-033
 -2.040000000000000E-002    3.028924314267694E-032
 -2.030000000000000E-002    8.352784275436869E-032
 -2.020000000000000E-002    1.505187380013599E-031
 -2.010000000000000E-002    2.262451076778043E-031
 -2.000000000000000E-002    3.015285176270604E-031
 -1.990000000000000E-002    3.627040134873557E-031
 -1.980000000000000E-002    3.919980858028077E-031
 -1.970000000000000E-002    3.688696373219666E-031
 -1.960000000000000E-002    2.725049946536472E-031
 -1.950000000000000E-002    8.552030664150914E-032
 -1.940000000000000E-002   -2.012877083904477E-031
 -1.930000000000000E-002   -5.835769612876986E-031
 -1.920000000000000E-002   -1.038228485685453E-030
 -1.910000000000000E-002   -1.519299737365475E-030
 -1.900000000000000E-002   -1.956445749557412E-030
 -1.890000000000000E-002   -2.257170967022652E-030
 -1.880000000000000E-002   -2.314127392190076E-030
 -1.870000000000000E-002   -2.018222104546154E-030
 -1.860000000000000E-002   -1.277514297607232E-030
 -1.850000000000000E-002   -4.076994785783042E-032
 -1.840000000000000E-002    1.676813855143199E-030
 -1.830000000000000E-002    3.769630680599260E-030
 -1.820000000000000E-002    6.024618976836608E-030
 -1.810000000000000E-002    8.117125004743347E-030
 -1.800000000000000E-002    9.625614319777829E-030
 -1.790000000000000E-002    1.007000483742231E-029
 -1.780000000000000E-002    8.975841244276012E-030
 -1.770000000000000E-002    5.962580195199854E-030
 -1.760000000000000E-002    8.490700318239296E-031
 -1.750000000000000E-002   -6.236584363786244E-030
 -1.740000000000000E-002   -1.476132493585799E-029
 -1.730000000000000E-002   -2.372865805192043E-029
 -1.720000000000000E-002   -3.168233950134798E-029
 -1.710000000000000E-002   -3.679518343929721E-029
 -1.700000000000000E-002   -3.705899307915468E-029
 -1.690000000000000E-002   -3.057912548941516E-029
 -1.680000000000000E-002   -1.595954289110641E-029
 -1.670000000000000E-002    7.257314524229295E-030
 -1.660000000000000E-002    3.815430088834085E-029
 -1.650000000000000E-002    7.408584631009561E-029
 -1.640000000000000E-002    1.104991044082101E-028
 -1.630000000000000E-002    1.410240969032203E-028
 -1.620000000000000E-002    1.579127299262138E-028
 -1.610000000000000E-002    1.528735546200943E-028
 -1.600000000000000E-002    1.182965395397601E-028
 -1.590000000000000E-002    4.879346762587394E-029
 -1.580000000000000E-002   -5.709897165127608E-029
 -1.570000000000000E-002   -1.952844389476757E-028
 -1.560000000000000E-002   -3.548346748620404E-028
 -1.550000000000000E-002   -5.174078595312176E-028
 -1.540000000000000E-002   -6.576748084252742E-028
 -1.530000000000000E-002   -7.450042768593112E-028
 -1.520000000000000E-002   -7.465304188029519E-028
 -1.510000000000000E-002   -6.315408918102034E-028
 -1.500000000000000E-002   -3.768961630538414E-028
 -1.490000000000000E-002    2.705495646414536E-029
 -1.480000000000000E-002    5.708259175191887E-028
 -1.470000000000000E-002    1.221339318885882E-027
 -1.460000000000000E-002    1.919668255833632E-027
 -1.450000000000000E-002    2.581898417154221E-027
 -1.440000000000000E-002    3.103809997749705E-027
 -1.430000000000000E-002    3.369688051135519E-027
 -1.420000000000000E-002    3.265047275949161E-027
 -1.410000000000000E-002    2.692449491691883E-027
 -1.400000000000000E-002    1.588975583936165E-027
 -1.390000000000000E-002   -5.661531822769983E-029
 -1.380000000000000E-002   -2.189363526337850E-027
 -1.370000000000000E-002   -4.678640471999022E-027
 -1.360000000000000E-002   -7.315932124414034E-027
 -1.350000000000000E-002   -9.821529071737883E-027
 -1.340000000000000E-002   -1.186094807700208E-026
 -1.330000000000000E-002   -1.307088682785270E-026
 -1.320000000000000E-002   -1.309342447354000E-026
 -1.310000000000000E-002   -1.161616612472491E-026
 -1.300000000000000E-002   -8.415245558883226E-027
 -1.290000000000000E-002   -3.397633895583757E-027
 -1.280000000000000E-002    3.360919123023963E-027
 -1.270000000000000E-002    1.158578767642799E-026
 -1.260000000000000E-002    2.078433333414319E-026
 -1.250000000000000E-002    3.024048815650889E-026
 -1.240000000000000E-002    3.902565098455253E-026
 -1.230000000000000E-002    4.602864818942601E-026
 -1.220000000000000E-002    5.000798750268228E-026
 -1.210000000000000E-002    4.967018928314478E-026
 -1.200000000000000E-002    4.377825821745351E-026
 -1.190000000000000E-002    3.129360353517085E-026
 -1.180000000000000E-002    1.155236280642740E-026
 -1.170000000000000E-002   -1.552782491665741E-026
 -1.160000000000000E-002   -4.922219823403713E-026
 -1.150000000000000E-002   -8.777646512018335E-026
 -1.140000000000000E-002   -1.282220878214775E-025
 -1.130000000000000E-002   -1.662762256999570E-025
 -1.120000000000000E-002   -1.963832375696922E-025
 -1.110000000000000E-002   -2.119585408189680E-025
 -1.100000000000000E-002   -2.058896392627267E-025
 -1.090000000000000E-002   -1.713294661597903E-025
 -1.080000000000000E-002   -1.027823600031592E-025
 -1.070000000000000E-002    2.568288297761599E-027
 -1.060000000000000E-002    1.434052124609217E-025
 -1.050000000000000E-002    3.128800495832254E-025
 -1.040000000000000E-002    4.975239901362142E-025
 -1.030000000000000E-002    6.767648243385923E-025
 -1.020000000000000E-002    8.233630327214918E-025
 -1.010000000000000E-002    9.050455827359254E-025
 -1.000000000000000E-002    8.875216779931715E-025
 -9.899999999999999E-003    7.389043870422513E-025
 -9.800000000000000E-003    4.353410118371660E-025
 -9.699999999999999E-003   -3.261139221602809E-026
 -9.599999999999999E-003   -6.536078598512193E-025
 -9.500000000000000E-003   -1.390130547667418E-024
 -9.399999999999999E-003   -2.175266330458169E-024
 -9.299999999999999E-003   -2.912856716845975E-024
 -9.200000000000000E-003   -3.482090506834037E-024
 -9.099999999999999E-003   -3.747255991613393E-024
 -8.999999999999999E-003   -3.572792212382058E-024
 -8.900000000000000E-003   -2.843009190223124E-024
 -8.799999999999999E-003   -1.484945692436612E-024
 -8.699999999999999E-003    5.080981939972157E-025
 -8.600000000000000E-003    3.055627969322341E-024
 -8.499999999999999E-003    5.975445479803039E-024
 -8.399999999999999E-003    8.979507415549226E-024
 -8.300000000000000E-003    1.168365445677546E-023
 -8.199999999999999E-003    1.363364191993426E-023
 -8.100000000000000E-003    1.434817529378104E-023
 -8.000000000000000E-003    1.337740305130178E-023
 -7.899999999999999E-003    1.037269273313343E-023
 -7.800000000000000E-003    5.160878417998257E-024
 -7.699999999999999E-003   -2.186159522711988E-024
 -7.599999999999999E-003   -1.129729923871023E-023
 -7.499999999999999E-003   -2.147450336649886E-023
 -7.399999999999999E-003   -3.170177240556310E-023
 -7.299999999999999E-003   -4.069816638967351E-023
 -7.199999999999999E-003   -4.701806302012177E-023
 -7.100000000000000E-003   -4.919619512814532E-023
 -6.999999999999999E-003   -4.592853163129557E-023
 -6.899999999999999E-003   -3.627349251549948E-023
 -6.800000000000000E-003   -1.985212726104633E-023
 -6.699999999999999E-003    2.978315763953305E-024
 -6.599999999999999E-003    3.100462273820446E-023
 -6.499999999999999E-003    6.211736265200682E-023
 -6.399999999999999E-003    9.337077332848622E-023
 -6.299999999999999E-003    1.211548770875575E-022
 -6.199999999999999E-003    1.414805261994087E-022
 -6.100000000000000E-003    1.503646270738079E-022
 -5.999999999999999E-003    1.442888692319962E-022
 -5.899999999999999E-003    1.206924169835405E-022
 -5.800000000000000E-003    7.844859993335844E-023
 -5.699999999999999E-003    1.827001255724088E-023
 -5.599999999999999E-003   -5.701454564218644E-023
 -5.499999999999999E-003   -1.423621007833076E-022
 -5.399999999999999E-003   -2.306359132204162E-022
 -5.299999999999999E-003   -3.129668060595509E-022
 -5.199999999999999E-003   -3.793567813477848E-022
 -5.099999999999999E-003   -4.195029735861840E-022
 -4.999999999999999E-003   -4.237960018106665E-022
 -4.899999999999999E-003   -3.844246351732903E-022
 -4.799999999999999E-003   -2.964998562498224E-022
 -4.699999999999999E-003   -1.590978080378586E-022
 -4.599999999999999E-003    2.388650767596465E-023
 -4.499999999999999E-003    2.431834337340797E-022
 -4.399999999999999E-003    4.839923455405867E-022
 -4.299999999999999E-003    7.263117932357880E-022
 -4.199999999999999E-003    9.458201664664236E-022
 -4.099999999999999E-003    1.115339114851807E-021
 -3.999999999999999E-003    1.206871854632166E-021
 -3.899999999999999E-003    1.194158684487350E-021
 -3.799999999999999E-003    1.055633625063866E-021
 -3.699999999999999E-003    7.776019980305541E-022
 -3.599999999999999E-003    3.573906298078791E-022
 -3.499999999999999E-003   -1.938427699693528E-022
 -3.399999999999999E-003   -8.490068592516510E-022
 -3.299999999999999E-003   -1.564078023300005E-021
 -3.199999999999999E-003   -2.278599509257401E-021
 -3.099999999999999E-003   -2.918022133099958E-021
 -2.999999999999999E-003   -3.398124467403668E-021
 -2.899999999999999E-003   -3.631581344326719E-021
 -2.799999999999999E-003   -3.536522215202097E-021
 -2.699999999999999E-003   -3.046645198514099E-021
 -2.599999999999999E-003   -2.122147613606687E-021
 -2.499999999999999E-003   -7.604366517314579E-022
 -2.399999999999999E-003    9.946654214818381E-022
 -2.299999999999999E-003    3.046665466761065E-021
 -2.199999999999999E-003    5.244551821780494E-021
 -2.099999999999999E-003    7.386651762166315E-021
 -1.999999999999999E-003    9.231120334922208E-021
 -1.899999999999999E-003    1.051341169266661E-020
 -1.799999999999999E-003    1.097033323223953E-020
 -1.699999999999999E-003    1.036938300831395E-020
 -1.599999999999999E-003    8.541163675875917E-021
 -1.499999999999999E-003    5.411799929706311E-021
 -1.399999999999999E-003    1.031616955065152E-021
 -1.299999999999999E-003   -4.403992160753967E-021
 -1.199999999999999E-003   -1.054551814187353E-020
 -1.099999999999999E-003   -1.689552770433719E-020
 -9.999999999999989E-004   -2.283241452006536E-020
 -8.999999999999990E-004   -2.765244374602763E-020
 -7.999999999999990E-004   -3.062886942084852E-020
 -6.999999999999989E-004   -3.108472526393707E-020
 -5.999999999999990E-004   -2.847376847980177E-020
 -4.999999999999989E-004   -2.246218016689992E-020
 -3.999999999999989E-004   -1.300233017722021E-020
 -2.999999999999989E-004   -3.893689427233576E-022
 -1.999999999999989E-004    1.470817329653221E-020
 -9.999999999999892E-005    3.125114594031972E-020
  1.084202172485504E-018    4.787081153199393E-020
  1.000000000000011E-004    6.294977274673913E-020
  2.000000000000011E-004    7.474051532830482E-020
  3.000000000000011E-004    8.151515828370838E-020
  4.000000000000011E-004    8.173607579086520E-020
  5.000000000000011E-004    7.423368148119102E-020
  6.000000000000011E-004    5.837537728711215E-020
  7.000000000000011E-004    3.420859656872606E-020
  8.000000000000011E-004    2.561368185363383E-021
  9.000000000000012E-004   -3.491412570238118E-020
  1.000000000000001E-003   -7.576604430893354E-020
  1.100000000000001E-003   -1.168417430559724E-019
  1.200000000000001E-003   -1.544617196769205E-019
  1.300000000000001E-003   -1.846632776956195E-019
  1.400000000000001E-003   -2.035024839836122E-019
  1.500000000000001E-003   -2.073972081832531E-019
  1.600000000000001E-003   -1.934892233240664E-019
  1.700000000000001E-003   -1.599993605459465E-019
  1.800000000000001E-003   -1.065471774899562E-019
  1.900000000000001E-003   -3.440557982861028E-020
  2.000000000000001E-003    5.333865649527850E-020
  2.100000000000001E-003    1.517451431713119E-019
  2.200000000000001E-003    2.541232719676356E-019
  2.300000000000001E-003    3.522946378378289E-019
  2.400000000000001E-003    4.370217480438964E-019
  2.500000000000001E-003    4.985991725351700E-019
  2.600000000000001E-003    5.275900658711536E-019
  2.700000000000001E-003    5.156759827666268E-019
  2.800000000000001E-003    4.565716194348154E-019
  2.900000000000001E-003    3.469401336746975E-019
  3.000000000000001E-003    1.872303381733540E-019
  3.100000000000001E-003   -1.765385895090043E-020
  3.200000000000001E-003   -2.579459100859745E-019
  3.300000000000001E-003   -5.189623071200884E-019
  3.400000000000001E-003   -7.814793565265212E-019
  3.500000000000001E-003   -1.022594993492457E-018
  3.600000000000001E-003   -1.217094102603053E-018
  3.700000000000001E-003   -1.339290520927719E-018
  3.800000000000001E-003   -1.365266082092744E-018
  3.900000000000001E-003   -1.275371336836090E-018
  4.000000000000001E-003   -1.056800056598011E-018
  4.100000000000001E-003   -7.060037957058619E-019
  4.200000000000001E-003   -2.306856970888902E-019
  4.300000000000001E-003    3.488955921007891E-019
  4.400000000000001E-003    9.995606069538367E-019
  4.500000000000001E-003    1.675982214776697E-018
  4.600000000000002E-003    2.322719642976288E-018
  4.700000000000001E-003    2.877532463759324E-018
  4.800000000000001E-003    3.275870904679925E-018
  4.900000000000002E-003    3.456309823541498E-018
  5.000000000000001E-003    3.366566689436612E-018
  5.100000000000001E-003    2.969634301101195E-018
  5.200000000000001E-003    2.249481391411187E-018
  5.300000000000002E-003    1.215737668605956E-018
  5.400000000000001E-003   -9.320446021811149E-020
  5.500000000000001E-003   -1.609170333553214E-018
  5.600000000000002E-003   -3.235637806552870E-018
  5.700000000000001E-003   -4.851828930863816E-018
  5.800000000000001E-003   -6.319450058100180E-018
  5.900000000000002E-003   -7.491843311816949E-018
  6.000000000000001E-003   -8.225080776622314E-018
  6.100000000000001E-003   -8.390319053171896E-018
  6.200000000000002E-003   -7.886554641412256E-018
  6.300000000000002E-003   -6.652797426129709E-018
  6.400000000000001E-003   -4.678622110815498E-018
  6.500000000000001E-003   -2.012075141189099E-018
  6.600000000000002E-003    1.235992001005599E-018
  6.700000000000001E-003    4.891923314379324E-018
  6.800000000000001E-003    8.724118849478386E-018
  6.900000000000002E-003    1.245298863231528E-017
  7.000000000000001E-003    1.576590248798670E-017
  7.100000000000001E-003    1.833667922125267E-017
  7.200000000000002E-003    1.984878932199927E-017
  7.300000000000002E-003    2.002108904934268E-017
  7.400000000000001E-003    1.863457599122392E-017
  7.500000000000001E-003    1.555837050944373E-017
  7.600000000000002E-003    1.077293327363857E-017
  7.700000000000001E-003    4.388404912518091E-018
  7.800000000000001E-003   -3.344025417708585E-018
  7.900000000000001E-003   -1.202966038054215E-017
  8.000000000000002E-003   -2.113836398219202E-017
  8.100000000000001E-003   -3.002426574988521E-017
  8.200000000000001E-003   -3.795754227061206E-017
  8.300000000000002E-003   -4.416783978748839E-017
  8.400000000000001E-003   -4.789793030900749E-017
  8.500000000000002E-003   -4.846512290734960E-017
  8.600000000000002E-003   -4.532687151143792E-017
  8.700000000000001E-003   -3.814603100538210E-017
  8.800000000000002E-003   -2.685043049009524E-017
  8.900000000000002E-003   -1.168097269026182E-017
  9.000000000000001E-003    6.777624469585220E-018
  9.100000000000002E-003    2.758883858004177E-017
  9.200000000000002E-003    4.948352253412005E-017
  9.300000000000001E-003    7.090908369135288E-017
  9.400000000000002E-003    9.010941052612630E-017
  9.500000000000001E-003    1.052337877264861E-016
  9.600000000000001E-003    1.144703325484452E-016
  9.700000000000002E-003    1.161966226798471E-016
  9.800000000000001E-003    1.091377829466108E-016
  9.900000000000001E-003    9.252001890806831E-017
  1.000000000000000E-002    6.620647175728666E-017
  1.010000000000000E-002    3.080167057955990E-017
  1.020000000000000E-002   -1.228826526501342E-017
  1.030000000000000E-002   -6.085072732253462E-017
  1.040000000000000E-002   -1.119249397646949E-016
  1.050000000000000E-002   -1.619274333166387E-016
  1.060000000000000E-002   -2.068436072520901E-016
  1.070000000000000E-002   -2.424790623902255E-016
  1.080000000000000E-002   -2.647588009753801E-016
  1.090000000000000E-002   -2.700573333871019E-016
  1.100000000000000E-002   -2.555382808756718E-016
  1.110000000000000E-002   -2.194788161669681E-016
  1.120000000000000E-002   -1.615524822685811E-016
  1.130000000000000E-002   -8.304398383167441E-017
  1.140000000000000E-002    1.302860552133526E-017
  1.150000000000000E-002    1.219049236431137E-016
  1.160000000000000E-002    2.372016437133327E-016
  1.170000000000000E-002    3.511676776432249E-016
  1.180000000000000E-002    4.550740127393666E-016
  1.190000000000000E-002    5.397274435605443E-016
  1.200000000000000E-002    5.960873369150639E-016
  1.210000000000000E-002    6.159544276739794E-016
  1.220000000000000E-002    5.926920681904926E-016
  1.230000000000000E-002    5.219319994396474E-016
  1.240000000000000E-002    4.022120889976788E-016
  1.250000000000000E-002    2.354904547903563E-016
  1.260000000000000E-002    2.748134808614516E-017
  1.270000000000000E-002   -2.122367305145080E-016
  1.280000000000000E-002   -4.703813400324546E-016
  1.290000000000000E-002   -7.304219155427710E-016
  1.300000000000000E-002   -9.733405947020106E-016
  1.310000000000000E-002   -1.178686903986067E-015
  1.320000000000000E-002   -1.325890829570172E-015
  1.330000000000000E-002   -1.395775204958947E-015
  1.340000000000000E-002   -1.372182673904538E-015
  1.350000000000000E-002   -1.243612908341814E-015
  1.360000000000000E-002   -1.004746699848545E-015
  1.370000000000000E-002   -6.577255016004375E-016
  1.380000000000000E-002   -2.130526585201151E-016
  1.390000000000000E-002    3.100076117346585E-016
  1.400000000000000E-002    8.836369777250438E-016
  1.410000000000000E-002    1.472346870784555E-015
  1.420000000000000E-002    2.034568592522429E-015
  1.430000000000000E-002    2.524927564953765E-015
  1.440000000000000E-002    2.897123451612223E-015
  1.450000000000000E-002    3.107278889460110E-015
  1.460000000000000E-002    3.117564149943905E-015
  1.470000000000000E-002    2.899858208129979E-015
  1.480000000000000E-002    2.439169954344452E-015
  1.490000000000000E-002    1.736527135585782E-015
  1.500000000000000E-002    8.110414216672354E-016
  1.510000000000000E-002   -2.991140401787810E-016
  1.520000000000000E-002   -1.537030103879263E-015
  1.530000000000000E-002   -2.828832156763697E-015
  1.540000000000000E-002   -4.086946126551949E-015
  1.550000000000000E-002   -5.214802885017390E-015
  1.560000000000000E-002   -6.112808902570091E-015
  1.570000000000000E-002   -6.685296385820586E-015
  1.580000000000000E-002   -6.848056360411597E-015
  1.590000000000000E-002   -6.535970400945461E-015
  1.600000000000000E-002   -5.710191436562791E-015
  1.610000000000000E-002   -4.364291679772425E-015
  1.620000000000000E-002   -2.528802411593907E-015
  1.630000000000000E-002   -2.736242318243598E-016
  1.640000000000000E-002    2.292126604101541E-015
  1.650000000000000E-002    5.023131704061590E-015
  1.660000000000000E-002    7.743870028764212E-015
  1.670000000000000E-002    1.025753111048185E-014
  1.680000000000000E-002    1.235755159986788E-014
  1.690000000000000E-002    1.384126387224438E-014
  1.700000000000000E-002    1.452493434345169E-014
  1.710000000000000E-002    1.425928185687344E-014
  1.720000000000000E-002    1.294442803437115E-014
  1.730000000000000E-002    1.054313730126393E-014
  1.740000000000000E-002    7.091193865472742E-015
  1.750000000000000E-002    2.703825800380077E-015
  1.760000000000000E-002   -2.422768219805802E-015
  1.770000000000000E-002   -8.015499170282229E-015
  1.780000000000000E-002   -1.373446726837028E-014
  1.790000000000000E-002   -1.918905575582383E-014
  1.800000000000000E-002   -2.395962446588157E-014
  1.810000000000000E-002   -2.762392731430838E-014
  1.820000000000000E-002   -2.978693377864488E-014
  1.830000000000000E-002   -3.011233431432468E-014
  1.840000000000000E-002   -2.835365233733881E-014
  1.850000000000000E-002   -2.438268508933553E-014
  1.860000000000000E-002   -1.821289431972764E-014
  1.870000000000000E-002   -1.001544815700994E-014