 -4.000000000000000E-002    0.000000000000000E+000
 -3.990000000000000E-002    0.000000000000000E+000
 -3.980000000000000E-002    0.000000000000000E+000
 -3.970000000000000E-002    0.000000000000000E+000
 -3.960000000000000E-002    0.000000000000000E+000
 -3.950000000000000E-002    0.000000000000000E+000
 -3.940000000000000E-002    0.000000000000000E+000
 -3.930000000000000E-002    0.000000000000000E+000
 -3.920000000000000E-002    0.000000000000000E+000
 -3.910000000000000E-002    0.000000000000000E+000
 -3.900000000000000E-002    0.000000000000000E+000
 -3.890000000000000E-002    0.000000000000000E+000
 -3.880000000000000E-002    0.000000000000000E+000
 -3.870000000000000E-002    0.000000000000000E+000
 -3.860000000000000E-002    0.000000000000000E+000
 -3.850000000000000E-002    0.000000000000000E+000
 -3.840000000000000E-002    0.000000000000000E+000
 -3.830000000000000E-002    0.000000000000000E+000
 -3.820000000000000E-002    0.000000000000000E+000
 -3.810000000000000E-002    0.000000000000000E+000
 -3.800000000000000E-002    0.000000000000000E+000
 -3.790000000000000E-002    0.000000000000000E+000
 -3.780000000000000E-002    0.000000000000000E+000
 -3.770000000000000E-002    0.000000000000000E+000
 -3.760000000000000E-002    0.000000000000000E+000
 -3.750000000000000E-002    0.000000000000000E+000
 -3.740000000000000E-002    0.000000000000000E+000
 -3.730000000000000E-002    0.000000000000000E+000
 -3.720000000000000E-002    0.000000000000000E+000
 -3.710000000000000E-002    0.000000000000000E+000
 -3.700000000000000E-002    0.000000000000000E+000
 -3.690000000000000E-002    0.000000000000000E+000
 -3.680000000000000E-002    0.000000000000000E+000
 -3.670000000000000E-002    0.000000000000000E+000
 -3.660000000000000E-002    0.000000000000000E+000
 -3.650000000000000E-002    0.000000000000000E+000
 -3.640000000000000E-002    0.000000000000000E+000
 -3.630000000000000E-002    0.000000000000000E+000
 -3.620000000000000E-002    0.000000000000000E+000
 -3.610000000000000E-002    0.000000000000000E+000
 -3.600000000000000E-002    0.000000000000000E+000
 -3.590000000000000E-002    0.000000000000000E+000
 -3.580000000000000E-002    0.000000000000000E+000
 -3.570000000000000E-002    0.000000000000000E+000
 -3.560000000000000E-002    0.000000000000000E+000
 -3.550000000000000E-002    0.000000000000000E+000
 -3.540000000000000E-002    0.000000000000000E+000
 -3.530000000000000E-002    0.000000000000000E+000
 -3.520000000000000E-002    0.000000000000000E+000
 -3.510000000000000E-002    0.000000000000000E+000
 -3.500000000000000E-002    0.000000000000000E+000
 -3.490000000000000E-002    0.000000000000000E+000
 -3.480000000000000E-002    0.000000000000000E+000
 -3.470000000000000E-002    0.000000000000000E+000
 -3.460000000000000E-002    0.000000000000000E+000
 -3.450000000000000E-002    0.000000000000000E+000
 -3.440000000000000E-002    0.000000000000000E+000
 -3.430000000000000E-002    0.000000000000000E+000
 -3.420000000000000E-002    0.000000000000000E+000
 -3.410000000000000E-002    0.000000000000000E+000
 -3.400000000000000E-002    0.000000000000000E+000
 -3.390000000000000E-002    0.000000000000000E+000
 -3.380000000000000E-002    0.000000000000000E+000
 -3.370000000000000E-002    0.000000000000000E+000
 -3.360000000000000E-002    0.000000000000000E+000
 -3.350000000000000E-002    0.000000000000000E+000
 -3.340000000000000E-002    0.000000000000000E+000
 -3.330000000000000E-002    0.000000000000000E+000
 -3.320000000000000E-002    0.000000000000000E+000
 -3.310000000000000E-002    0.000000000000000E+000
 -3.300000000000000E-002    0.000000000000000E+000
 -3.290000000000000E-002    0.000000000000000E+000
 -3.280000000000000E-002    0.000000000000000E+000
 -3.270000000000000E-002    0.000000000000000E+000
 -3.260000000000000E-002    0.000000000000000E+000
 -3.250000000000000E-002    0.000000000000000E+000
 -3.240000000000000E-002    0.000000000000000E+000
 -3.230000000000000E-002    0.000000000000000E+000
 -3.220000000000000E-002    0.000000000000000E+000
 -3.210000000000000E-002    0.000000000000000E+000
 -3.200000000000000E-002    0.000000000000000E+000
 -3.190000000000000E-002    0.000000000000000E+000
 -3.180000000000000E-002    0.000000000000000E+000
 -3.170000000000000E-002    0.000000000000000E+000
 -3.160000000000000E-002    0.000000000000000E+000
 -3.150000000000000E-002    0.000000000000000E+000
 -3.140000000000000E-002    0.000000000000000E+000
 -3.130000000000000E-002    0.000000000000000E+000
 -3.120000000000000E-002    0.000000000000000E+000
 -3.110000000000000E-002    0.000000000000000E+000
 -3.100000000000000E-002    0.000000000000000E+000
 -3.090000000000000E-002    0.000000000000000E+000
 -3.080000000000000E-002    0.000000000000000E+000
 -3.070000000000000E-002    0.000000000000000E+000
 -3.060000000000000E-002    0.000000000000000E+000
 -3.050000000000000E-002    0.000000000000000E+000
 -3.040000000000000E-002    0.000000000000000E+000
 -3.030000000000000E-002    0.000000000000000E+000
 -3.020000000000000E-002    0.000000000000000E+000
 -3.010000000000000E-002    0.000000000000000E+000
 -3.000000000000000E-002    0.000000000000000E+000
 -2.990000000000000E-002    0.000000000000000E+000
 -2.980000000000000E-002    0.000000000000000E+000
 -2.970000000000000E-002    0.000000000000000E+000
 -2.960000000000000E-002    0.000000000000000E+000
 -2.950000000000000E-002    0.000000000000000E+000
 -2.940000000000000E-002    0.000000000000000E+000
 -2.930000000000000E-002    0.000000000000000E+000
 -2.920000000000000E-002    0.000000000000000E+000
 -2.910000000000000E-002    0.000000000000000E+000
 -2.900000000000000E-002    0.000000000000000E+000
 -2.890000000000000E-002    0.000000000000000E+000
 -2.880000000000000E-002    0.000000000000000E+000
 -2.870000000000000E-002    0.000000000000000E+000
 -2.860000000000000E-002    0.000000000000000E+000
 -2.850000000000000E-002    0.000000000000000E+000
 -2.840000000000000E-002    0.000000000000000E+000
 -2.830000000000000E-002    0.000000000000000E+000
 -2.820000000000000E-002    0.000000000000000E+000
 -2.810000000000000E-002    0.000000000000000E+000
 -2.800000000000000E-002    0.000000000000000E+000
 -2.790000000000000E-002    0.000000000000000E+000
 -2.780000000000000E-002    0.000000000000000E+000
 -2.770000000000000E-002    0.000000000000000E+000
 -2.760000000000000E-002    0.000000000000000E+000
 -2.750000000000000E-002    0.000000000000000E+000
 -2.740000000000000E-002    0.000000000000000E+000
 -2.730000000000000E-002    0.000000000000000E+000
 -2.720000000000000E-002    0.000000000000000E+000
 -2.710000000000000E-002    0.000000000000000E+000
 -2.700000000000000E-002    0.000000000000000E+000
 -2.690000000000000E-002    0.000000000000000E+000
 -2.680000000000000E-002    0.000000000000000E+000
 -2.670000000000000E-002    0.000000000000000E+000
 -2.660000000000000E-002    0.000000000000000E+000
 -2.650000000000000E-002    0.000000000000000E+000
 -2.640000000000000E-002    0.000000000000000E+000
 -2.630000000000000E-002    0.000000000000000E+000
 -2.620000000000000E-002    0.000000000000000E+000
 -2.610000000000000E-002    0.000000000000000E+000
 -2.600000000000000E-002    0.000000000000000E+000
 -2.590000000000000E-002    0.000000000000000E+000
 -2.580000000000000E-002    0.000000000000000E+000
 -2.570000000000000E-002    0.000000000000000E+000
 -2.560000000000000E-002    0.000000000000000E+000
 -2.550000000000000E-002    0.000000000000000E+000
 -2.540000000000000E-002    0.000000000000000E+000
 -2.530000000000000E-002    0.000000000000000E+000
 -2.520000000000000E-002    0.000000000000000E+000
 -2.510000000000000E-002    0.000000000000000E+000
 -2.500000000000000E-002    0.000000000000000E+000
 -2.490000000000000E-002    0.000000000000000E+000
 -2.480000000000000E-002    0.000000000000000E+000
 -2.470000000000000E-002    0.000000000000000E+000
 -2.460000000000000E-002    0.000000000000000E+000
 -2.450000000000000E-002    0.000000000000000E+000
 -2.440000000000000E-002    0.000000000000000E+000
 -2.430000000000000E-002    0.000000000000000E+000
 -2.420000000000000E-002    0.000000000000000E+000
 -2.410000000000000E-002    0.000000000000000E+000
 -2.400000000000000E-002    0.000000000000000E+000
 -2.390000000000000E-002    0.000000000000000E+000
 -2.380000000000000E-002    0.000000000000000E+000
 -2.370000000000000E-002    0.000000000000000E+000
 -2.360000000000000E-002    0.000000000000000E+000
 -2.350000000000000E-002    0.000000000000000E+000
 -2.340000000000000E-002    0.000000000000000E+000
 -2.330000000000000E-002    0.000000000000000E+000
 -2.320000000000000E-002    0.000000000000000E+000
 -2.310000000000000E-002    0.000000000000000E+000
 -2.300000000000000E-002    0.000000000000000E+000
 -2.290000000000000E-002    0.000000000000000E+000
 -2.280000000000000E-002    0.000000000000000E+000
 -2.270000000000000E-002    0.000000000000000E+000
 -2.260000000000000E-002    0.000000000000000E+000
 -2.250000000000000E-002    0.000000000000000E+000
 -2.240000000000000E-002    0.000000000000000E+000
 -2.230000000000000E-002    0.000000000000000E+000
 -2.220000000000000E-002    0.000000000000000E+000
 -2.210000000000000E-002    0.000000000000000E+000
 -2.200000000000000E-002    0.000000000000000E+000
 -2.190000000000000E-002    0.000000000000000E+000
 -2.180000000000000E-002    0.000000000000000E+000
 -2.170000000000000E-002    0.000000000000000E+000
 -2.160000000000000E-002    0.000000000000000E+000
 -2.150000000000000E-002    0.000000000000000E+000
 -2.140000000000000E-002    0.000000000000000E+000
 -2.130000000000000E-002    0.000000000000000E+000
 -2.120000000000000E-002    0.000000000000000E+000
 -2.110000000000000E-002    0.000000000000000E+000
 -2.100000000000000E-002    0.000000000000000E+000
 -2.090000000000000E-002    0.000000000000000E+000
 -2.080000000000000E-002    0.000000000000000E+000
 -2.070000000000000E-002    0.000000000000000E+000
 -2.060000000000000E-002    0.000000000000000E+000
 -2.050000000000000E-002    0.000000000000000E+000
 -2.040000000000000E-002    0.000000000000000E+000
 -2.030000000000000E-002    0.000000000000000E+000
 -2.020000000000000E-002    0.000000000000000E+000
 -2.010000000000000E-002    0.000000000000000E+000
 -2.000000000000000E-002    0.000000000000000E+000
 -1.990000000000000E-002    0.000000000000000E+000
 -1.980000000000000E-002    0.000000000000000E+000
 -1.970000000000000E-002    0.000000000000000E+000
 -1.960000000000000E-002    0.000000000000000E+000
 -1.950000000000000E-002    0.000000000000000E+000
 -1.940000000000000E-002    0.000000000000000E+000
 -1.930000000000000E-002    0.000000000000000E+000
 -1.920000000000000E-002    0.000000000000000E+000
 -1.910000000000000E-002    0.000000000000000E+000
 -1.900000000000000E-002    0.000000000000000E+000
 -1.890000000000000E-002    0.000000000000000E+000
 -1.880000000000000E-002    0.000000000000000E+000
 -1.870000000000000E-002    0.000000000000000E+000
 -1.860000000000000E-002    0.000000000000000E+000
 -1.850000000000000E-002    0.000000000000000E+000
 -1.840000000000000E-002    0.000000000000000E+000
 -1.830000000000000E-002    0.000000000000000E+000
 -1.820000000000000E-002    0.000000000000000E+000
 -1.810000000000000E-002    0.000000000000000E+000
 -1.800000000000000E-002    0.000000000000000E+000
 -1.790000000000000E-002    0.000000000000000E+000
 -1.780000000000000E-002    0.000000000000000E+000
 -1.770000000000000E-002    0.000000000000000E+000
 -1.760000000000000E-002    0.000000000000000E+000
 -1.750000000000000E-002    0.000000000000000E+000
 -1.740000000000000E-002    0.000000000000000E+000
 -1.730000000000000E-002    0.000000000000000E+000
 -1.720000000000000E-002    0.000000000000000E+000
 -1.710000000000000E-002    0.000000000000000E+000
 -1.700000000000000E-002    0.000000000000000E+000
 -1.690000000000000E-002    0.000000000000000E+000
 -1.680000000000000E-002    0.000000000000000E+000
 -1.670000000000000E-002    0.000000000000000E+000
 -1.660000000000000E-002    0.000000000000000E+000
 -1.650000000000000E-002    0.000000000000000E+000
 -1.640000000000000E-002    0.000000000000000E+000
 -1.630000000000000E-002    0.000000000000000E+000
 -1.620000000000000E-002    0.000000000000000E+000
 -1.610000000000000E-002    0.000000000000000E+000
 -1.600000000000000E-002    0.000000000000000E+000
 -1.590000000000000E-002    0.000000000000000E+000
 -1.580000000000000E-002    0.000000000000000E+000
 -1.570000000000000E-002    0.000000000000000E+000
 -1.560000000000000E-002    0.000000000000000E+000
 -1.550000000000000E-002    0.000000000000000E+000
 -1.540000000000000E-002    0.000000000000000E+000
 -1.530000000000000E-002    0.000000000000000E+000
 -1.520000000000000E-002    0.000000000000000E+000
 -1.510000000000000E-002    0.000000000000000E+000
 -1.500000000000000E-002    0.000000000000000E+000
 -1.490000000000000E-002    0.000000000000000E+000
 -1.480000000000000E-002    0.000000000000000E+000
 -1.470000000000000E-002    0.000000000000000E+000
 -1.460000000000000E-002    0.000000000000000E+000
 -1.450000000000000E-002    0.000000000000000E+000
 -1.440000000000000E-002    0.000000000000000E+000
 -1.430000000000000E-002    0.000000000000000E+000
 -1.420000000000000E-002    0.000000000000000E+000
 -1.410000000000000E-002    0.000000000000000E+000
 -1.400000000000000E-002    0.000000000000000E+000
 -1.390000000000000E-002    0.000000000000000E+000
 -1.380000000000000E-002    0.000000000000000E+000
 -1.370000000000000E-002    0.000000000000000E+000
 -1.360000000000000E-002    0.000000000000000E+000
 -1.350000000000000E-002    0.000000000000000E+000
 -1.340000000000000E-002    0.000000000000000E+000
 -1.330000000000000E-002    0.000000000000000E+000
 -1.320000000000000E-002    0.000000000000000E+000
 -1.310000000000000E-002    0.000000000000000E+000
 -1.300000000000000E-002    0.000000000000000E+000
 -1.290000000000000E-002    0.000000000000000E+000
 -1.280000000000000E-002    0.000000000000000E+000
 -1.270000000000000E-002    0.000000000000000E+000
 -1.260000000000000E-002    0.000000000000000E+000
 -1.250000000000000E-002    0.000000000000000E+000
 -1.240000000000000E-002    0.000000000000000E+000
 -1.230000000000000E-002    0.000000000000000E+000
 -1.220000000000000E-002    0.000000000000000E+000
 -1.210000000000000E-002    0.000000000000000E+000
 -1.200000000000000E-002    0.000000000000000E+000
 -1.190000000000000E-002    6.279011448514453E-048
 -1.180000000000000E-002    6.279011448514453E-048
 -1.170000000000000E-002    6.279011448514453E-048
 -1.160000000000000E-002    0.000000000000000E+000
 -1.150000000000000E-002   -6.279011448514453E-048
 -1.140000000000000E-002   -1.883703434554336E-047
 -1.130000000000000E-002   -3.139505724257227E-047
 -1.120000000000000E-002   -4.395308013960117E-047
 -1.110000000000000E-002   -4.958511191336288E-047
 -1.100000000000000E-002   -1.258079285719891E-046
 -1.090000000000000E-002   -1.373705067720933E-046
 -1.080000000000000E-002   -1.047516256159758E-046
 -1.070000000000000E-002    2.920611799282569E-047
 -1.060000000000000E-002    1.997723501598290E-046
 -1.050000000000000E-002    2.550945174971047E-046
 -1.040000000000000E-002    2.640154213220413E-046
 -1.030000000000000E-002    9.899277264094653E-047
 -1.020000000000000E-002    1.217030572943023E-045
 -1.010000000000000E-002    1.106513848722345E-045
 -1.000000000000000E-002    7.424957449835862E-046
 -9.899999999999999E-003    1.542216659774688E-046
 -9.800000000000000E-003   -1.335575256902925E-045
 -9.699999999999999E-003   -3.758165589598207E-045
 -9.599999999999999E-003   -5.766018774544745E-045
 -9.500000000000000E-003   -8.463630841212380E-045
 -9.399999999999999E-003   -1.069421260275440E-044
 -9.299999999999999E-003   -1.201625076987843E-044
 -9.200000000000000E-003   -1.185498931275640E-044
 -9.099999999999999E-003   -9.402228764538783E-045
 -8.999999999999999E-003   -3.897844889449067E-045
 -8.900000000000000E-003    5.542375543857369E-045
 -8.799999999999999E-003    1.768598782838950E-044
 -8.699999999999999E-003    3.233303340106132E-044
 -8.600000000000000E-003    4.777949313504975E-044
 -8.499999999999999E-003    6.235848071787944E-044
 -8.399999999999999E-003    7.228617543893538E-044
 -8.300000000000000E-003    7.416329528427804E-044
 -8.199999999999999E-003    6.472304435844536E-044
 -8.100000000000000E-003    3.971378065532207E-044
 -8.000000000000000E-003   -2.744851853201819E-045
 -7.899999999999999E-003   -6.177039454904527E-044
 -7.800000000000000E-003   -1.359996560464660E-043
 -7.699999999999999E-003   -2.198920215673253E-043
 -7.599999999999999E-003   -3.035687278546072E-043
 -7.499999999999999E-003   -3.735541766455637E-043
 -7.399999999999999E-003   -4.137404397772785E-043
 -7.299999999999999E-003   -4.050538769285677E-043
 -7.199999999999999E-003   -3.308321834744008E-043
 -7.100000000000000E-003   -1.745870221956721E-043
 -6.999999999999999E-003    7.391968748917786E-044
 -6.899999999999999E-003    4.143459144469634E-043
 -6.800000000000000E-003    8.346188335466451E-043
 -6.699999999999999E-003    1.303161799915224E-042
 -6.599999999999999E-003    1.772640062198374E-042
 -6.499999999999999E-003    2.174042905420731E-042
 -6.399999999999999E-003    2.419680772515800E-042
 -6.299999999999999E-003    2.409445757176073E-042
 -6.199999999999999E-003    2.038350775379061E-042
 -6.100000000000000E-003    1.206755443567298E-042
 -5.999999999999999E-003   -1.603228143431550E-043
 -5.899999999999999E-003   -2.092997074153385E-042
 -5.800000000000000E-003   -4.552144549064121E-042
 -5.699999999999999E-003   -7.404398527192513E-042
 -5.599999999999999E-003   -1.039649456119089E-041
 -5.499999999999999E-003   -1.314030143243034E-041
 -5.399999999999999E-003   -1.510837868878673E-041
 -5.299999999999999E-003   -1.565060152456391E-041
 -5.199999999999999E-003   -1.403761668311067E-041
 -5.099999999999999E-003   -9.539576192989715E-042
 -4.999999999999999E-003   -1.544877538758866E-042
 -4.899999999999999E-003    1.028797629308393E-041
 -4.799999999999999E-003    2.583984733634049E-041
 -4.699999999999999E-003    4.433571173927467E-041
 -4.599999999999999E-003    6.416059461598605E-041
 -4.499999999999999E-003    8.273549954632308E-041
 -4.399999999999999E-003    9.650129636120993E-041
 -4.299999999999999E-003    1.010595121170473E-040
 -4.199999999999999E-003    9.153344524022008E-041
 -4.099999999999999E-003    6.317317971454808E-041
 -3.999999999999999E-003    1.221712755005135E-041
 -3.899999999999999E-003   -6.302483294143746E-041
 -3.799999999999999E-003   -1.609637855162296E-040
 -3.699999999999999E-003   -2.755536629445171E-040
 -3.599999999999999E-003   -3.953695823684149E-040
 -3.499999999999999E-003   -5.032080827830689E-040
 -3.399999999999999E-003   -5.765065447229445E-040
 -3.299999999999999E-003   -5.888607875845721E-040
 -3.199999999999999E-003   -5.128239182320096E-040
 -3.099999999999999E-003   -3.240420058521278E-040
 -2.999999999999999E-003   -6.545818500501070E-042
 -2.899999999999999E-003    4.412218270838833E-040
 -2.799999999999999E-003    1.000399689781603E-039
 -2.699999999999999E-003    1.626732161352158E-039
 -2.599999999999999E-003    2.247856550160481E-039
 -2.499999999999999E-003    2.764168719013063E-039
 -2.399999999999999E-003    3.054464339174963E-039
 -2.299999999999999E-003    2.987175696192559E-039
 -2.199999999999999E-003    2.437416962167838E-039
 -2.099999999999999E-003    1.309131690533296E-039
 -1.999999999999999E-003   -4.394244762375673E-040
 -1.899999999999999E-003   -2.769784547696203E-039
 -1.799999999999999E-003   -5.540932352295227E-039
 -1.699999999999999E-003   -8.495251739248750E-039
 -1.599999999999999E-003   -1.125769368584310E-038
 -1.499999999999999E-003   -1.335261813808482E-038
 -1.399999999999999E-003   -1.424137375648245E-038
 -1.299999999999999E-003   -1.338143100946955E-038
 -1.199999999999999E-003   -1.030483631529371E-038
 -1.099999999999999E-003   -4.710129670477977E-039
 -9.999999999999989E-004    3.441801568610877E-039
 -8.999999999999990E-004    1.384077499992850E-038
 -7.999999999999990E-004    2.576434570021539E-038
 -6.999999999999989E-004    3.805446419962639E-038
 -5.999999999999990E-004    4.914789518202347E-038
 -4.999999999999989E-004    5.717051911421195E-038
 -3.999999999999989E-004    6.009935041661083E-038
 -2.999999999999989E-004    5.598778238050031E-038
 -1.999999999999989E-004    4.324013669283147E-038
 -9.999999999999892E-005    2.091198028126634E-038
  1.084202172485504E-018   -1.099552671241505E-038
  1.000000000000011E-004   -5.128474063063266E-038
  2.000000000000011E-004   -9.739375893783897E-038
  3.000000000000011E-004   -1.453487427547500E-037
  4.000000000000011E-004   -1.898664674072162E-037
  5.000000000000011E-004   -2.246259502350748E-037
  6.000000000000011E-004   -2.427134912638651E-037
  7.000000000000011E-004   -2.372296215945288E-037
  8.000000000000011E-004   -2.020308582029885E-037
  9.000000000000012E-004   -1.325641690004077E-037
  1.000000000000001E-003   -2.674099931293315E-038
  1.100000000000001E-003    1.142118094070790E-037
  1.200000000000001E-003    2.849934776601376E-037
  1.300000000000001E-003    4.756392518497495E-037
  1.400000000000001E-003    6.711821335142991E-037
  1.500000000000001E-003    8.516589171321465E-037
  1.600000000000001E-003    9.925647260735636E-037
  1.700000000000001E-003    1.065870017388802E-036
  1.800000000000001E-003    1.041717981157071E-036
  1.900000000000001E-003    8.909093005628856E-037
  2.000000000000001E-003    5.882448564134234E-037
  2.100000000000001E-003    1.167216419078721E-037
  2.200000000000001E-003   -5.275395589003959E-037
  2.300000000000001E-003   -1.329927447081534E-036
  2.400000000000001E-003   -2.252039084490081E-036
  2.500000000000001E-003   -3.227189409807424E-036
  2.600000000000001E-003   -4.157711834245261E-036
  2.700000000000001E-003   -4.915209215299990E-036
  2.800000000000001E-003   -5.344993705084330E-036
  2.900000000000001E-003   -5.275858250759562E-036
  3.000000000000001E-003   -4.535990083589676E-036
  3.100000000000001E-003   -2.975261836584359E-036
  3.200000000000001E-003   -4.932515564994220E-037
  3.300000000000001E-003    2.928761956800227E-036
  3.400000000000001E-003    7.194853348752193E-036
  3.500000000000001E-003    1.206486957438682E-035
  3.600000000000001E-003    1.713364163510931E-035
  3.700000000000001E-003    2.182511824274746E-035
  3.800000000000001E-003    2.540760741206120E-035
  3.900000000000001E-003    2.703547660794687E-035
  4.000000000000001E-003    2.582081204382583E-035
  4.100000000000001E-003    2.093553878961445E-035
  4.200000000000001E-003    1.174051905876680E-035
  4.300000000000001E-003   -2.066699734897627E-036
  4.400000000000001E-003   -2.029895123079751E-035
  4.500000000000001E-003   -4.213984039426110E-035
  4.600000000000002E-003   -6.604000565343294E-035
  4.700000000000001E-003   -8.967415436153309E-035
  4.800000000000001E-003   -1.099836603137402E-034
  4.900000000000002E-003   -1.233262150505346E-034
  5.000000000000001E-003   -1.257469469349655E-034
  5.100000000000001E-003   -1.133747360100531E-034
  5.200000000000001E-003   -8.293303082690670E-035
  5.300000000000002E-003   -3.233697638917287E-035
  5.400000000000001E-003    3.866992384646782E-035
  5.500000000000001E-003    1.279056679725897E-034
  5.600000000000002E-003    2.302485944438466E-034
  5.700000000000001E-003    3.373396450039208E-034
  5.800000000000001E-003    4.375866997257029E-034
  5.900000000000002E-003    5.165636824736236E-034
  6.000000000000001E-003    5.578785141474422E-034
  6.100000000000001E-003    5.445504686781900E-034
  6.200000000000002E-003    4.608901877758561E-034
  6.300000000000002E-003    2.948119315713053E-034
  6.400000000000001E-003    4.043474324284175E-035
  6.500000000000001E-003   -2.992519109712707E-034
  6.600000000000002E-003   -7.099611442231230E-034
  6.700000000000001E-003   -1.164291776312866E-033
  6.800000000000001E-003   -1.620936824625811E-033
  6.900000000000002E-003   -2.025341824878419E-033
  7.000000000000001E-003   -2.312192333880284E-033
  7.100000000000001E-003   -2.410007367190955E-033
  7.200000000000002E-003   -2.247941044979186E-033
  7.300000000000002E-003   -1.764650095010846E-033
  7.400000000000001E-003   -9.187782237883856E-034
  7.500000000000001E-003    2.997386649789200E-034
  7.600000000000002E-003    1.858700589766250E-033
  7.700000000000001E-003    3.674487390394823E-033
  7.800000000000001E-003    5.606432952226067E-033
  7.900000000000001E-003    7.456539017029079E-033
  8.000000000000002E-003    8.976217364861657E-033
  8.100000000000001E-003    9.881376904580956E-033
  8.200000000000001E-003    9.876510747430417E-033
  8.300000000000002E-003    8.687498480640701E-033
  8.400000000000001E-003    6.101632200294794E-033
  8.500000000000002E-003    2.012022638223430E-033
  8.600000000000002E-003   -3.537873906031157E-033
  8.700000000000001E-003   -1.031511112133625E-032
  8.800000000000002E-003   -1.786994833959779E-032
  8.900000000000002E-003   -2.552719235906082E-032
  9.000000000000001E-003   -3.240262451913639E-032
  9.100000000000002E-003   -3.744965742360144E-032
  9.200000000000002E-003   -3.953902079119187E-032
  9.300000000000001E-003   -3.757102952029746E-032
  9.400000000000002E-003   -3.061583946595921E-032
  9.500000000000001E-003   -1.807238708586050E-032
  9.600000000000001E-003    1.679723534101865E-034
  9.700000000000002E-003    2.357158732580506E-032
  9.800000000000001E-003    5.084795736579581E-032
  9.900000000000001E-003    7.989365258530398E-032
  1.000000000000000E-002    1.078169672118291E-031
  1.010000000000000E-002    1.310617723166275E-031
  1.020000000000000E-002    1.456422894171705E-031
  1.030000000000000E-002    1.474905067878924E-031
  1.040000000000000E-002    1.329053183109058E-031
  1.050000000000000E-002    9.907805889062660E-032
  1.060000000000000E-002    4.465373748814582E-032
  1.070000000000000E-002   -2.972712284202759E-032
  1.080000000000000E-002   -1.209727216102064E-031
  1.090000000000000E-002   -2.232444259237126E-031
  1.100000000000000E-002   -3.278960605321435E-031
  1.110000000000000E-002   -4.237153242816762E-031
  1.120000000000000E-002   -4.975177880228908E-031
  1.130000000000000E-002   -5.351175128140250E-031
  1.140000000000000E-002   -5.226622534964654E-031
  1.150000000000000E-002   -4.482776885531898E-031
  1.160000000000000E-002   -3.039167782008147E-031
  1.170000000000000E-002   -8.726033335808085E-032
  1.180000000000000E-002    1.965296646615766E-031
  1.190000000000000E-002    5.334377795243746E-031
  1.200000000000000E-002    8.998559688601784E-031
  1.210000000000000E-002    1.262723171781575E-030
  1.220000000000000E-002    1.580757176184823E-030
  1.230000000000000E-002    1.806924242438533E-030
  1.240000000000000E-002    1.892190985759469E-030
  1.250000000000000E-002    1.790473194890813E-030
  1.260000000000000E-002    1.464535568872637E-030
  1.270000000000000E-002    8.924293334683124E-031
  1.280000000000000E-002    7.388116902967060E-032
  1.290000000000000E-002   -9.640971989705357E-031
  1.300000000000000E-002   -2.163211685956720E-030
  1.310000000000000E-002   -3.432368998092756E-030
  1.320000000000000E-002   -4.649449956953751E-030
  1.330000000000000E-002   -5.667015128396408E-030
  1.340000000000000E-002   -6.322303379592976E-030
  1.350000000000000E-002   -6.451488125145454E-030
  1.360000000000000E-002   -5.907651829353239E-030
  1.370000000000000E-002   -4.581387331139796E-030
  1.380000000000000E-002   -2.422350949170436E-030
  1.390000000000000E-002    5.404329672571119E-031
  1.400000000000000E-002    4.182119851637797E-030
  1.410000000000000E-002    8.272260727213196E-030
  1.420000000000000E-002    1.247442178783940E-029
  1.430000000000000E-002    1.635754853856801E-029
  1.440000000000000E-002    1.942063614063203E-029
  1.450000000000000E-002    2.113114284559366E-029
  1.460000000000000E-002    2.097610143324412E-029
  1.470000000000000E-002    1.852325762598458E-029
  1.480000000000000E-002    1.348770221783448E-029
  1.490000000000000E-002    5.797924824219985E-030
  1.500000000000000E-002   -4.346258707380550E-030
  1.510000000000000E-002   -1.643216972409701E-029
  1.520000000000000E-002   -2.961749199655101E-029
  1.530000000000000E-002   -4.274574217762153E-029
  1.540000000000000E-002   -5.439956312795985E-029
  1.550000000000000E-002   -6.299448906204929E-029
  1.560000000000000E-002   -6.691193231184793E-029
  1.570000000000000E-002   -6.466557985988005E-029
  1.580000000000000E-002   -5.509045462729743E-029
  1.590000000000000E-002   -3.753907398004409E-029
  1.600000000000000E-002   -1.206513840097939E-029
  1.610000000000000E-002    2.042784369606193E-029
  1.620000000000000E-002    5.809631711744757E-029
  1.630000000000000E-002    9.814702149229375E-029
  1.640000000000000E-002    1.369259637748548E-028
  1.650000000000000E-002    1.701173065933958E-028
  1.660000000000000E-002    1.930541804591362E-028
  1.670000000000000E-002    2.011318654211411E-028
  1.680000000000000E-002    1.903010399214064E-028
  1.690000000000000E-002    1.576058059134340E-028
  1.700000000000000E-002    1.017194395775639E-028
  1.710000000000000E-002    2.342158975844164E-029
  1.720000000000000E-002   -7.404486299040088E-029
  1.730000000000000E-002   -1.847982869720833E-028
  1.740000000000000E-002   -3.003787457907052E-028
  1.750000000000000E-002   -4.100854681869175E-028
  1.760000000000000E-002   -5.016114132478128E-028
  1.770000000000000E-002   -5.619691116395581E-028
  1.780000000000000E-002   -5.786697178414815E-028
  1.790000000000000E-002   -5.410852830531192E-028
  1.800000000000000E-002   -4.418907913510941E-028
  1.810000000000000E-002   -2.784550902479382E-028
  1.820000000000000E-002   -5.403066324931341E-029
  1.830000000000000E-002    2.214172830305233E-028
  1.840000000000000E-002    5.308938104270782E-028
  1.850000000000000E-002    8.506985480899135E-028
  1.860000000000000E-002    1.151479345715020E-027
  1.870000000000000E-002    1.400046131455750E-027