 -4.000000000000000E-002    0.000000000000000E+000
 -3.990000000000000E-002    0.000000000000000E+000
 -3.980000000000000E-002    0.000000000000000E+000
 -3.970000000000000E-002    0.000000000000000E+000
 -3.960000000000000E-002    0.000000000000000E+000
 -3.950000000000000E-002    1.964977978276616E-023
 -3.940000000000000E-002    2.269807639837935E-022
 -3.930000000000000E-002    1.427492729826392E-021
 -3.920000000000000E-002    6.467884537564928E-021
 -3.910000000000000E-002    2.362016287844742E-020
 -3.900000000000000E-002    7.386351440453744E-020
 -3.890000000000000E-002    2.054429360380631E-019
 -3.880000000000000E-002    5.215996456883770E-019
 -3.870000000000000E-002    1.231437650230812E-018
 -3.860000000000000E-002    2.739655505365846E-018
 -3.850000000000000E-002    5.797319879677269E-018
 -3.840000000000000E-002    1.173979235164722E-017
 -3.830000000000000E-002    2.283285865058327E-017
 -3.820000000000000E-002    4.272410937549959E-017
 -3.810000000000000E-002    7.694118893682136E-017
 -3.800000000000000E-002    1.332800526075421E-016
 -3.790000000000000E-002    2.217796871279640E-016
 -3.780000000000000E-002    3.537945977459669E-016
 -3.770000000000000E-002    5.394840196466048E-016
 -3.760000000000000E-002    7.828998492836972E-016
 -3.750000000000000E-002    1.073863058918494E-015
 -3.740000000000000E-002    1.376085797178752E-015
 -3.730000000000000E-002    1.611635576040924E-015
 -3.720000000000000E-002    1.642935740223395E-015
 -3.710000000000000E-002    1.255061797725802E-015
 -3.700000000000000E-002    1.430232927622648E-016
 -3.690000000000000E-002   -2.089247110121069E-015
 -3.680000000000000E-002   -5.909761267259488E-015
 -3.670000000000000E-002   -1.180996872012109E-014
 -3.660000000000000E-002   -2.021842179593937E-014
 -3.650000000000000E-002   -3.137116358318478E-014
 -3.640000000000000E-002   -4.513912599563637E-014
 -3.630000000000000E-002   -6.082139108096665E-014
 -3.620000000000000E-002   -7.692415169227339E-014
 -3.610000000000000E-002   -9.095769717103757E-014
 -3.600000000000000E-002   -9.929570556647277E-014
 -3.590000000000000E-002   -9.715064751372418E-014
 -3.580000000000000E-002   -7.872299547964246E-014
 -3.570000000000000E-002   -3.757776264139341E-014
 -3.560000000000000E-002    3.271263059364100E-014
 -3.550000000000000E-002    1.376462598967902E-013
 -3.540000000000000E-002    2.806147490515356E-013
 -3.530000000000000E-002    4.615418382373356E-013
 -3.520000000000000E-002    6.754579773820695E-013
 -3.510000000000000E-002    9.111797878499637E-013
 -3.500000000000000E-002    1.150300839990410E-012
 -3.490000000000000E-002    1.366720605538761E-012
 -3.480000000000000E-002    1.526932653031726E-012
 -3.470000000000000E-002    1.591256487610023E-012
 -3.460000000000000E-002    1.516128913891931E-012
 -3.450000000000000E-002    1.257472597562408E-012
 -3.440000000000000E-002    7.750380164808410E-013
 -3.430000000000000E-002    3.748568530942459E-014
 -3.420000000000000E-002   -9.721502803528039E-013
 -3.410000000000000E-002   -2.251078388184362E-012
 -3.400000000000000E-002   -3.771970346522902E-012
 -3.390000000000000E-002   -5.479324459456183E-012
 -3.380000000000000E-002   -7.287464863802328E-012
 -3.370000000000000E-002   -9.080572754099525E-012
 -3.360000000000000E-002   -1.071499768238010E-011
 -3.350000000000000E-002   -1.202393327613552E-011
 -3.340000000000000E-002   -1.282436015324370E-011
 -3.330000000000000E-002   -1.292601247190587E-011
 -3.320000000000000E-002   -1.214201661337113E-011
 -3.310000000000000E-002   -1.030079644880755E-011
 -3.300000000000000E-002   -7.258850509803927E-012
 -3.290000000000000E-002   -2.914066547392881E-012
 -3.280000000000000E-002    2.780694891560873E-012
 -3.270000000000000E-002    9.803953506013962E-012
 -3.260000000000000E-002    1.805211704260156E-011
 -3.250000000000000E-002    2.732647648597116E-011
 -3.240000000000000E-002    3.732126093737983E-011
 -3.230000000000000E-002    4.761371871499655E-011
 -3.220000000000000E-002    5.765765729311167E-011
 -3.210000000000000E-002    6.678244413851314E-011
 -3.200000000000000E-002    7.419988194732579E-011
 -3.190000000000000E-002    7.902173818824166E-011
 -3.180000000000000E-002    8.029064827634122E-011
 -3.170000000000000E-002    7.702662081580252E-011
 -3.160000000000000E-002    6.829045388033290E-011
 -3.150000000000000E-002    5.326370707572572E-011
 -3.140000000000000E-002    3.134289057598639E-011
 -3.130000000000000E-002    2.243006788659128E-012
 -3.120000000000000E-002   -3.389698813873014E-011
 -3.110000000000000E-002   -7.641662640529532E-011
 -3.100000000000000E-002   -1.240560021999757E-010
 -3.090000000000000E-002   -1.749100857843525E-010
 -3.080000000000000E-002   -2.264275899571902E-010
 -3.070000000000000E-002   -2.754646906276375E-010
 -3.060000000000000E-002   -3.184006843456056E-010
 -3.050000000000000E-002   -3.513171959763727E-010
 -3.040000000000000E-002   -3.702368808366585E-010
 -3.030000000000000E-002   -3.714101990001417E-010
 -3.020000000000000E-002   -3.516322616967421E-010
 -3.010000000000000E-002   -3.085655553444848E-010
 -3.000000000000000E-002   -2.410403400762442E-010
 -2.990000000000000E-002   -1.493021830309101E-010
 -2.980000000000000E-002   -3.517780240669192E-011
 -2.970000000000000E-002    9.786545138822482E-011
 -2.960000000000000E-002    2.447832715338372E-010
 -2.950000000000000E-002    3.991474823199626E-010
 -2.940000000000000E-002    5.534627870845610E-010
 -2.930000000000000E-002    6.995880799222840E-010
 -2.920000000000000E-002    8.292316778906614E-010
 -2.910000000000000E-002    9.344798314405379E-010
 -2.900000000000000E-002    1.008312049991716E-009
 -2.890000000000000E-002    1.045055789442529E-009
 -2.880000000000000E-002    1.040736887316851E-009
 -2.870000000000000E-002    9.932923453945457E-010
 -2.860000000000000E-002    9.026254562504061E-010
 -2.850000000000000E-002    7.705014226212892E-010
 -2.840000000000000E-002    6.002996650811937E-010
 -2.830000000000000E-002    3.966574440846181E-010
 -2.820000000000000E-002    1.650532155532584E-010
 -2.810000000000000E-002   -8.861186013805075E-011
 -2.800000000000000E-002   -3.583750221335497E-010
 -2.790000000000000E-002   -6.384613629092383E-010
 -2.780000000000000E-002   -9.233813125613302E-010
 -2.770000000000000E-002   -1.207856802921558E-009
 -2.760000000000000E-002   -1.486581962113374E-009
 -2.750000000000000E-002   -1.753850777430144E-009
 -2.740000000000000E-002   -2.003109959646018E-009
 -2.730000000000000E-002   -2.226515813306958E-009
 -2.720000000000000E-002   -2.414585040753183E-009
 -2.710000000000000E-002   -2.556031538767730E-009
 -2.700000000000000E-002   -2.637868819627395E-009
 -2.690000000000000E-002   -2.645836022168532E-009
 -2.680000000000000E-002   -2.565171515307511E-009
 -2.670000000000000E-002   -2.381716497604186E-009
 -2.660000000000000E-002   -2.083286819287091E-009
 -2.650000000000000E-002   -1.661211267212542E-009
 -2.640000000000000E-002   -1.111895973539250E-009
 -2.630000000000000E-002   -4.382548291103522E-010
 -2.620000000000000E-002    3.491637887773474E-010
 -2.610000000000000E-002    1.231511028241531E-009
 -2.600000000000000E-002    2.181561293882428E-009
 -2.590000000000000E-002    3.164306750239591E-009
 -2.580000000000000E-002    4.138247028970948E-009
 -2.570000000000000E-002    5.057329187827625E-009
 -2.560000000000000E-002    5.873428501196971E-009
 -2.550000000000000E-002    6.539200725372106E-009
 -2.540000000000000E-002    7.011085931373479E-009
 -2.530000000000000E-002    7.252222780546669E-009
 -2.520000000000000E-002    7.235025156215201E-009
 -2.510000000000000E-002    6.943195251820114E-009
 -2.500000000000000E-002    6.372993367236170E-009
 -2.490000000000000E-002    5.533648111055804E-009
 -2.480000000000000E-002    4.446872049972748E-009
 -2.470000000000000E-002    3.145530270214435E-009
 -2.460000000000000E-002    1.671593275128294E-009
 -2.450000000000000E-002    7.356973923864794E-011
 -2.440000000000000E-002   -1.596329691384973E-009
 -2.430000000000000E-002   -3.285029129977182E-009
 -2.420000000000000E-002   -4.941160376149097E-009
 -2.410000000000000E-002   -6.517141299631783E-009
 -2.400000000000000E-002   -7.970594166784664E-009
 -2.390000000000000E-002   -9.265012960093841E-009
 -2.380000000000000E-002   -1.036968933566778E-008
 -2.370000000000000E-002   -1.125899087573791E-008
 -2.360000000000000E-002   -1.191117553792541E-008
 -2.350000000000000E-002   -1.230698647121396E-008
 -2.340000000000000E-002   -1.242830831235998E-008
 -2.330000000000000E-002   -1.225717483281867E-008
 -2.320000000000000E-002   -1.177538123051709E-008
 -2.310000000000000E-002   -1.096489233774629E-008
 -2.300000000000000E-002   -9.809160617800841E-009
 -2.290000000000000E-002   -8.295339716807493E-009
 -2.280000000000000E-002   -6.417278988541285E-009
 -2.270000000000000E-002   -4.179067724290521E-009
 -2.260000000000000E-002   -1.598802401422359E-009
 -2.250000000000000E-002    1.287818380853427E-009
 -2.240000000000000E-002    4.424499409133880E-009
 -2.230000000000000E-002    7.732376709990125E-009
 -2.220000000000000E-002    1.110943650282288E-008
 -2.210000000000000E-002    1.443161455493224E-008
 -2.200000000000000E-002    1.755574436444682E-008
 -2.190000000000000E-002    2.032436652717277E-008
 -2.180000000000000E-002    2.257229766746344E-008
 -2.170000000000000E-002    2.413465891922081E-008
 -2.160000000000000E-002    2.485598750375807E-008
 -2.150000000000000E-002    2.459991472428039E-008
 -2.140000000000000E-002    2.325884978228338E-008
 -2.130000000000000E-002    2.076311438207207E-008
 -2.120000000000000E-002    1.708894966315957E-008
 -2.110000000000000E-002    1.226497255404427E-008
 -2.100000000000000E-002    6.376710705673898E-009
 -2.090000000000000E-002   -4.309637845882387E-010
 -2.080000000000000E-002   -7.953529369641722E-009
 -2.070000000000000E-002   -1.592850224370909E-008
 -2.060000000000000E-002   -2.403879868987958E-008
 -2.050000000000000E-002   -3.191735607739543E-008
 -2.040000000000000E-002   -3.915248243953225E-008
 -2.030000000000000E-002   -4.529334809250123E-008
 -2.020000000000000E-002   -4.985509069804017E-008
 -2.010000000000000E-002   -5.232297251859029E-008
 -2.000000000000000E-002   -5.215525418234266E-008
 -1.990000000000000E-002   -4.878447811607776E-008
 -1.980000000000000E-002   -4.161710374451103E-008
 -1.970000000000000E-002   -3.003160439267199E-008
 -1.960000000000000E-002   -1.337529467459997E-008
 -1.950000000000000E-002    9.039678712739386E-009
 -1.940000000000000E-002    3.794063151154109E-008
 -1.930000000000000E-002    7.409826187583763E-008
 -1.920000000000000E-002    1.183295896610970E-007
 -1.910000000000000E-002    1.714993301452739E-007
 -1.900000000000000E-002    2.345191533538052E-007
 -1.890000000000000E-002    3.083445991643001E-007
 -1.880000000000000E-002    3.939694198267063E-007
 -1.870000000000000E-002    4.924174310556369E-007
 -1.860000000000000E-002    6.047322697274507E-007
 -1.850000000000000E-002    7.319652587009023E-007
 -1.840000000000000E-002    8.751627480098439E-007
 -1.830000000000000E-002    1.035352556265910E-006
 -1.820000000000000E-002    1.213531702865412E-006
 -1.810000000000000E-002    1.410655154198446E-006
 -1.800000000000000E-002    1.627627233293312E-006
 -1.790000000000000E-002    1.865295774207832E-006
 -1.780000000000000E-002    2.124449432360920E-006
 -1.770000000000000E-002    2.405819419209538E-006
 -1.760000000000000E-002    2.710084557829509E-006
 -1.750000000000000E-002    3.037879547190369E-006
 -1.740000000000000E-002    3.389807500168519E-006
 -1.730000000000000E-002    3.766454050844542E-006
 -1.720000000000000E-002    4.168404175783331E-006
 -1.710000000000000E-002    4.596259971861924E-006
 -1.700000000000000E-002    5.050659217294727E-006
 -1.690000000000000E-002    5.532294025746788E-006
 -1.680000000000000E-002    6.041928363663379E-006
 -1.670000000000000E-002    6.580413234114102E-006
 -1.660000000000000E-002    7.148703530107675E-006
 -1.650000000000000E-002    7.747868057881243E-006
 -1.640000000000000E-002    8.379102553695073E-006
 -1.630000000000000E-002    9.043738797011727E-006
 -1.620000000000000E-002    9.743249772128322E-006
 -1.610000000000000E-002    1.047925656865049E-005
 -1.600000000000000E-002    1.125353288072116E-005
 -1.590000000000000E-002    1.206800688633449E-005
 -1.580000000000000E-002    1.292476621506747E-005
 -1.570000000000000E-002    1.382605751031190E-005
 -1.560000000000000E-002    1.477429213487109E-005
 -1.550000000000000E-002    1.577204543556165E-005
 -1.540000000000000E-002    1.682206498967498E-005
 -1.530000000000000E-002    1.792727069623389E-005
 -1.520000000000000E-002    1.909076354626283E-005
 -1.510000000000000E-002    2.031583530128431E-005
 -1.500000000000000E-002    2.160597583305566E-005
 -1.490000000000000E-002    2.296488723587282E-005
 -1.480000000000000E-002    2.439649966106779E-005
 -1.470000000000000E-002    2.590498142942141E-005
 -1.460000000000000E-002    2.749476359109177E-005
 -1.450000000000000E-002    2.917055536812379E-005
 -1.440000000000000E-002    3.093736203418642E-005
 -1.430000000000000E-002    3.280050384322406E-005
 -1.420000000000000E-002    3.476562748699299E-005
 -1.410000000000000E-002    3.683871881243148E-005
 -1.400000000000000E-002    3.902612011693606E-005
 -1.390000000000000E-002    4.133451975307688E-005
 -1.380000000000000E-002    4.377096063569679E-005
 -1.370000000000000E-002    4.634282397219059E-005
 -1.360000000000000E-002    4.905782601605155E-005
 -1.350000000000000E-002    5.192399159159429E-005
 -1.340000000000000E-002    5.494964650803468E-005
 -1.330000000000000E-002    5.814339737463375E-005
 -1.320000000000000E-002    6.151410540877667E-005
 -1.310000000000000E-002    6.507088985434521E-005
 -1.300000000000000E-002    6.882311271612902E-005
 -1.290000000000000E-002    7.278040012612484E-005
 -1.280000000000000E-002    7.695264126454261E-005
 -1.270000000000000E-002    8.135003014190018E-005
 -1.260000000000000E-002    8.598311450579449E-005
 -1.250000000000000E-002    9.086283273854987E-005
 -1.240000000000000E-002    9.600061234265139E-005
 -1.230000000000000E-002    1.014084043112258E-004
 -1.220000000000000E-002    1.070987796565933E-004
 -1.210000000000000E-002    1.130850141015789E-004
 -1.200000000000000E-002    1.193811239124638E-004
 -1.190000000000000E-002    1.260019723737569E-004
 -1.180000000000000E-002    1.329632681081378E-004
 -1.170000000000000E-002    1.402816215381523E-004
 -1.160000000000000E-002    1.479745272015210E-004
 -1.150000000000000E-002    1.560603876294340E-004
 -1.140000000000000E-002    1.645584504825743E-004
 -1.130000000000000E-002    1.734887647965208E-004
 -1.120000000000000E-002    1.828721246271352E-004
 -1.110000000000000E-002    1.927300507324971E-004
 -1.100000000000000E-002    2.030846507266298E-004
 -1.090000000000000E-002    2.139586278242656E-004
 -1.080000000000000E-002    2.253752381173601E-004
 -1.070000000000000E-002    2.373582471475177E-004
 -1.060000000000000E-002    2.499319922170109E-004
 -1.050000000000000E-002    2.631213698632044E-004
 -1.040000000000000E-002    2.769519141022678E-004
 -1.030000000000000E-002    2.914499544230101E-004
 -1.020000000000000E-002    3.066426663752974E-004
 -1.010000000000000E-002    3.225582204713155E-004
 -1.000000000000000E-002    3.392259329101224E-004
 -9.899999999999999E-003    3.566764189822563E-004
 -9.800000000000000E-003    3.749417150894136E-004
 -9.699999999999999E-003    3.940553818892502E-004
 -9.599999999999999E-003    4.140525655422401E-004
 -9.500000000000000E-003    4.349701189599445E-004
 -9.399999999999999E-003    4.568465524990606E-004
 -9.299999999999999E-003    4.797220926369777E-004
 -9.200000000000000E-003    5.036385115749967E-004
 -9.099999999999999E-003    5.286392144962410E-004
 -8.999999999999999E-003    5.547689569200502E-004
 -8.900000000000000E-003    5.820739752833454E-004
 -8.799999999999999E-003    6.106016103848311E-004
 -8.699999999999999E-003    6.404005244952057E-004
 -8.600000000000000E-003    6.715204364967510E-004
 -8.499999999999999E-003    7.040121813196430E-004
 -8.399999999999999E-003    7.379276045432298E-004
 -8.300000000000000E-003    7.733197416971467E-004
 -8.199999999999999E-003    8.102427933275195E-004
 -8.100000000000000E-003    8.487523825747612E-004
 -8.000000000000000E-003    8.889056047268230E-004
 -7.899999999999999E-003    9.307611702197655E-004
 -7.800000000000000E-003    9.743795901782500E-004
 -7.699999999999999E-003    1.019823303818448E-003
 -7.599999999999999E-003    1.067157046200961E-003
 -7.499999999999999E-003    1.116447565727346E-003
 -7.399999999999999E-003    1.167764014557811E-003
 -7.299999999999999E-003    1.221178078330562E-003
 -7.199999999999999E-003    1.276763499709495E-003
 -7.100000000000000E-003    1.334596623614694E-003
 -6.999999999999999E-003    1.394755902193670E-003
 -6.899999999999999E-003    1.457321939975901E-003
 -6.800000000000000E-003    1.522377354041170E-003
 -6.699999999999999E-003    1.590006739638726E-003
 -6.599999999999999E-003    1.660296376590963E-003
 -6.499999999999999E-003    1.733334092008683E-003
 -6.399999999999999E-003    1.809209372632916E-003
 -6.299999999999999E-003    1.888013035566018E-003
 -6.199999999999999E-003    1.969837477664662E-003
 -6.100000000000000E-003    2.054776301584255E-003
 -5.999999999999999E-003    2.142924594152643E-003
 -5.899999999999999E-003    2.234378806280400E-003
 -5.800000000000000E-003    2.329237104314054E-003
 -5.699999999999999E-003    2.427599384581473E-003
 -5.599999999999999E-003    2.529566923707789E-003
 -5.499999999999999E-003    2.635242909430689E-003
 -5.399999999999999E-003    2.744732394108094E-003
 -5.299999999999999E-003    2.858142327510838E-003
 -5.199999999999999E-003    2.975581696688352E-003
 -5.099999999999999E-003    3.097161117716292E-003
 -4.999999999999999E-003    3.222993214841852E-003
 -4.899999999999999E-003    3.353192420991494E-003
 -4.799999999999999E-003    3.487874770929514E-003
 -4.699999999999999E-003    3.627158015069406E-003
 -4.599999999999999E-003    3.771161098975892E-003
 -4.499999999999999E-003    3.920004454920048E-003
 -4.399999999999999E-003    4.073809103008359E-003
 -4.299999999999999E-003    4.232697638662345E-003
 -4.199999999999999E-003    4.396793202068238E-003
 -4.099999999999999E-003    4.566219406341678E-003
 -3.999999999999999E-003    4.741100089078983E-003
 -3.899999999999999E-003    4.921559706257949E-003
 -3.799999999999999E-003    5.107722938526129E-003
 -3.699999999999999E-003    5.299713378523158E-003
 -3.599999999999999E-003    5.497655607754007E-003
 -3.499999999999999E-003    5.701672703539657E-003
 -3.399999999999999E-003    5.911888246379093E-003
 -3.299999999999999E-003    6.128424135471002E-003
 -3.199999999999999E-003    6.351402133400822E-003
 -3.099999999999999E-003    6.580942889339734E-003
 -2.999999999999999E-003    6.817165708382165E-003
 -2.899999999999999E-003    7.060188303336659E-003
 -2.799999999999999E-003    7.310126724793200E-003
 -2.699999999999999E-003    7.567095706313116E-003
 -2.599999999999999E-003    7.831208088525603E-003
 -2.499999999999999E-003    8.102573517009366E-003
 -2.399999999999999E-003    8.381299862573865E-003
 -2.299999999999999E-003    8.667492714312604E-003
 -2.199999999999999E-003    8.961254783558577E-003
 -2.099999999999999E-003    9.262684863976346E-003
 -1.999999999999999E-003    9.571879105932452E-003
 -1.899999999999999E-003    9.888928873498400E-003
 -1.799999999999999E-003    1.021392186419401E-002
 -1.699999999999999E-003    1.054694188143770E-002
 -1.599999999999999E-003    1.088806729230887E-002
 -1.499999999999999E-003    1.123737053472525E-002
 -1.399999999999999E-003    1.159491987107464E-002
 -1.299999999999999E-003    1.196077602505407E-002
 -1.199999999999999E-003    1.233499345029014E-002
 -1.099999999999999E-003    1.271762016741221E-002
 -9.999999999999989E-004    1.310869487498676E-002
 -8.999999999999990E-004    1.350825027999479E-002
 -7.999999999999990E-004    1.391630841947351E-002
 -6.999999999999989E-004    1.433288336341219E-002
 -5.999999999999990E-004    1.475797979636174E-002
 -4.999999999999989E-004    1.519159099282516E-002
 -3.999999999999989E-004    1.563370099034902E-002
 -2.999999999999989E-004    1.608428164527051E-002
 -1.999999999999989E-004    1.654329462428102E-002
 -9.999999999999892E-005    1.701068842498075E-002
  1.084202172485504E-018    1.748640045836676E-002
  1.000000000000011E-004    1.797035437667447E-002
  2.000000000000011E-004    1.846246085532904E-002
  3.000000000000011E-004    1.896261586785280E-002
  4.000000000000011E-004    1.947070389801587E-002
  5.000000000000011E-004    1.998659128793536E-002
  6.000000000000011E-004    2.051013218696990E-002
  7.000000000000011E-004    2.104116241444759E-002
  8.000000000000011E-004    2.157950195263237E-002
  9.000000000000012E-004    2.212495301874468E-002
  1.000000000000001E-003    2.267730291102037E-002
  1.100000000000001E-003    2.323631597095933E-002
  1.200000000000001E-003    2.380174063311805E-002
  1.300000000000001E-003    2.437330613012512E-002
  1.400000000000001E-003    2.495071867573273E-002
  1.500000000000001E-003    2.553366331563677E-002
  1.600000000000001E-003    2.612180433122802E-002
  1.700000000000001E-003    2.671478289055870E-002
  1.800000000000001E-003    2.731221652665224E-002
  1.900000000000001E-003    2.791370068022725E-002
  2.000000000000001E-003    2.851880397929275E-002
  2.100000000000001E-003    2.912707036964958E-002
  2.200000000000001E-003    2.973801782009754E-002
  2.300000000000001E-003    3.035113745598928E-002
  2.400000000000001E-003    3.096589439668810E-002
  2.500000000000001E-003    3.158172601783690E-002
  2.600000000000001E-003    3.219804184703535E-002
  2.700000000000001E-003    3.281422121162011E-002
  2.800000000000001E-003    3.342961731736711E-002
  2.900000000000001E-003    3.404355238442747E-002
  3.000000000000001E-003    3.465531921067806E-002
  3.100000000000001E-003    3.526417590321313E-002
  3.200000000000001E-003    3.586935628834096E-002
  3.300000000000001E-003    3.647005888053256E-002
  3.400000000000001E-003    3.706545372412353E-002
  3.500000000000001E-003    3.765467706594285E-002
  3.600000000000001E-003    3.823683309334477E-002
  3.700000000000001E-003    3.881098978891320E-002
  3.800000000000001E-003    3.937618646043475E-002
  3.900000000000001E-003    3.993142699058757E-002
  4.000000000000001E-003    4.047567743369930E-002
  4.100000000000001E-003    4.100787386165086E-002
  4.200000000000001E-003    4.152691635529724E-002
  4.300000000000001E-003    4.203166405415357E-002
  4.400000000000001E-003    4.252094570957247E-002
  4.500000000000001E-003    4.299355295091054E-002
  4.600000000000002E-003    4.344823860781501E-002
  4.700000000000001E-003    4.388372229538449E-002
  4.800000000000001E-003    4.429868446313475E-002
  4.900000000000002E-003    4.469176667814514E-002
  5.000000000000001E-003    4.506157482160461E-002
  5.100000000000001E-003    4.540668026876492E-002
  5.200000000000001E-003    4.572561594002536E-002
  5.300000000000002E-003    4.601688178180774E-002
  5.400000000000001E-003    4.627894054210142E-002
  5.500000000000001E-003    4.651021737092138E-002
  5.600000000000002E-003    4.670910530402900E-002
  5.700000000000001E-003    4.687395825653341E-002
  5.800000000000001E-003    4.700310572971281E-002
  5.900000000000002E-003    4.709483224061063E-002
  6.000000000000001E-003    4.714740041987394E-002
  6.100000000000001E-003    4.715903190748118E-002
  6.200000000000002E-003    4.712792220866368E-002
  6.300000000000002E-003    4.705223322065659E-002
  6.400000000000001E-003    4.693009568065040E-002
  6.500000000000001E-003    4.675961278035128E-002
  6.600000000000002E-003    4.653885492303616E-002
  6.700000000000001E-003    4.626586555368979E-002
  6.800000000000001E-003    4.593866174519331E-002
  6.900000000000002E-003    4.555523027311160E-002
  7.000000000000001E-003    4.511352854969675E-002
  7.100000000000001E-003    4.461149589215811E-002
  7.200000000000002E-003    4.404704142898154E-002
  7.300000000000002E-003    4.341805830703453E-002
  7.400000000000001E-003    4.272241091771031E-002
  7.500000000000001E-003    4.195794956947786E-002
  7.600000000000002E-003    4.112250427243012E-002
  7.700000000000001E-003    4.021388849199950E-002
  7.800000000000001E-003    3.922990177455979E-002
  7.900000000000001E-003    3.816833300278936E-002
  8.000000000000002E-003    3.702695908090423E-002
  8.100000000000001E-003    3.580354413391395E-002
  8.200000000000001E-003    3.449585309231305E-002
  8.300000000000002E-003    3.310164134895063E-002
  8.400000000000001E-003    3.161866060820225E-002
  8.500000000000002E-003    3.004466396930120E-002
  8.600000000000002E-003    2.837740503738779E-002
  8.700000000000001E-003    2.661464560159288E-002
  8.800000000000002E-003    2.475414418360582E-002
  8.900000000000002E-003    2.279367309982643E-002
  9.000000000000001E-003    2.073101470176231E-002
  9.100000000000002E-003    1.856396197213845E-002
  9.200000000000002E-003    1.629032252429987E-002
  9.300000000000001E-003    1.390792261523817E-002
  9.400000000000002E-003    1.141460741680047E-002
  9.500000000000001E-003    8.808244367394679E-003
  9.600000000000001E-003    6.086728297114185E-003
  9.700000000000002E-003    3.247980582512925E-003
  9.800000000000001E-003    2.899545758616785E-004
  9.900000000000001E-003   -2.789362869152539E-003
  1.000000000000000E-002   -5.991947134239853E-003
  1.010000000000000E-002   -9.319734185860748E-003
  1.020000000000000E-002   -1.277461632016035E-002
  1.030000000000000E-002   -1.635843941466980E-002
  1.040000000000000E-002   -2.007300203691854E-002
  1.050000000000000E-002   -2.392004807139764E-002
  1.060000000000000E-002   -2.790126677418987E-002
  1.070000000000000E-002   -3.201828795966657E-002
  1.080000000000000E-002   -3.627268049363022E-002
  1.090000000000000E-002   -4.066594805194818E-002
  1.100000000000000E-002   -4.519952526795785E-002
  1.110000000000000E-002   -4.987477505462710E-002
  1.120000000000000E-002   -5.469298611729825E-002
  1.130000000000000E-002   -5.965536718396734E-002
  1.140000000000000E-002   -6.476305214351137E-002
  1.150000000000000E-002   -7.001708200632965E-002
  1.160000000000000E-002   -7.541841612710078E-002
  1.170000000000000E-002   -8.096792075216212E-002
  1.180000000000000E-002   -8.666636585923211E-002
  1.190000000000000E-002   -9.251442198648591E-002
  1.200000000000000E-002   -9.851267225048543E-002
  1.210000000000000E-002   -0.104661572715315     
  1.220000000000000E-002   -0.110961491633431     
  1.230000000000000E-002   -0.117412676645926     
  1.240000000000000E-002   -0.124015267818475     
  1.250000000000000E-002   -0.130769292354720     
  1.260000000000000E-002   -0.137674641129353     
  1.270000000000000E-002   -0.144731114417212     
  1.280000000000000E-002   -0.151938352634651     
  1.290000000000000E-002   -0.159295911407908     
  1.300000000000000E-002   -0.166803166357631     
  1.310000000000000E-002   -0.174459401807549     
  1.320000000000000E-002   -0.182263754025744     
  1.330000000000000E-002   -0.190215222801557     
  1.340000000000000E-002   -0.198312666447308     
  1.350000000000000E-002   -0.206554785434471     
  1.360000000000000E-002   -0.214940160421558     
  1.370000000000000E-002   -0.223467229565381     
  1.380000000000000E-002   -0.232134248514846     
  1.390000000000000E-002   -0.240939353385053     
  1.400000000000000E-002   -0.249880500164410     
  1.410000000000000E-002   -0.258955538460954     
  1.420000000000000E-002   -0.268162097914760     
  1.430000000000000E-002   -0.277497690779728     
  1.440000000000000E-002   -0.286959663576512     
  1.450000000000000E-002   -0.296545194313472     
  1.460000000000000E-002   -0.306251306049254     
  1.470000000000000E-002   -0.316074857232715     
  1.480000000000000E-002   -0.326012549157287     
  1.490000000000000E-002   -0.336060904877195     
  1.500000000000000E-002   -0.346216329966784     
  1.510000000000000E-002   -0.356474978717653     
  1.520000000000000E-002   -0.366832941910851     
  1.530000000000000E-002   -0.377286071107810     
  1.540000000000000E-002   -0.387830087036026     
  1.550000000000000E-002   -0.398460538752188     
  1.560000000000000E-002   -0.409172824362755     
  1.570000000000000E-002   -0.419962176739059     
  1.580000000000000E-002   -0.430823662276669     
  1.590000000000000E-002   -0.441752180825549     
  1.600000000000000E-002   -0.452742466057773     
  1.610000000000000E-002   -0.463789131493238     
  1.620000000000000E-002   -0.474886575156105     
  1.630000000000000E-002   -0.486029071970227     
  1.640000000000000E-002   -0.497210787551810     
  1.650000000000000E-002   -0.508425635486931     
  1.660000000000000E-002   -0.519667443573874     
  1.670000000000000E-002   -0.530929891255546     
  1.680000000000000E-002   -0.542206518963380     
  1.690000000000000E-002   -0.553490696783965     
  1.700000000000000E-002   -0.564775637776436     
  1.710000000000000E-002   -0.576054491316822     
  1.720000000000000E-002   -0.587320224336393     
  1.730000000000000E-002   -0.598565679021634     
  1.740000000000000E-002   -0.609783544014114     
  1.750000000000000E-002   -0.620966484108174     
  1.760000000000000E-002   -0.632106917961382     
  1.770000000000000E-002   -0.643197243830042     
  1.780000000000000E-002   -0.654229669251292     
  1.790000000000000E-002   -0.665196388881451     
  1.800000000000000E-002   -0.676089447374603     
  1.810000000000000E-002   -0.686900768142218     
  1.820000000000000E-002   -0.697622268655234     
  1.830000000000000E-002   -0.708245704557793     
  1.840000000000000E-002   -0.718762745204180     
  1.850000000000000E-002   -0.729165022410655     
  1.860000000000000E-002   -0.739444111029750     
  1.870000000000000E-002   -0.749591468997388     