 -4.000000000000000E-002    0.000000000000000E+000
 -3.990000000000000E-002    0.000000000000000E+000
 -3.980000000000000E-002    0.000000000000000E+000
 -3.970000000000000E-002    0.000000000000000E+000
 -3.960000000000000E-002    0.000000000000000E+000
 -3.950000000000000E-002    0.000000000000000E+000
 -3.940000000000000E-002    9.818023301486398E-023
 -3.930000000000000E-002    1.192695525529441E-021
 -3.920000000000000E-002    7.705040852110625E-021
 -3.910000000000000E-002    3.507843023661269E-020
 -3.900000000000000E-002    1.258897781567203E-019
 -3.890000000000000E-002    3.777878532382345E-019
 -3.880000000000000E-002    9.820097963225679E-019
 -3.870000000000000E-002    2.260769394715015E-018
 -3.860000000000000E-002    4.674334545686620E-018
 -3.850000000000000E-002    8.745811892443306E-018
 -3.840000000000000E-002    1.482953540674342E-017
 -3.830000000000000E-002    2.263861653732158E-017
 -3.820000000000000E-002    3.046438708494955E-017
 -3.810000000000000E-002    3.408232904540414E-017
 -3.800000000000000E-002    2.545940788142003E-017
 -3.790000000000000E-002   -8.441567098105109E-018
 -3.780000000000000E-002   -8.624067227279184E-017
 -3.770000000000000E-002   -2.313594470957266E-016
 -3.760000000000000E-002   -4.689851680473421E-016
 -3.750000000000000E-002   -8.199042408108513E-016
 -3.740000000000000E-002   -1.290616752110897E-015
 -3.730000000000000E-002   -1.859788628429671E-015
 -3.720000000000000E-002   -2.462130492891110E-015
 -3.710000000000000E-002   -2.972155392868972E-015
 -3.700000000000000E-002   -3.191791266173797E-015
 -3.690000000000000E-002   -2.847195924737425E-015
 -3.680000000000000E-002   -1.600932342824142E-015
 -3.670000000000000E-002    9.145723200463065E-016
 -3.660000000000000E-002    5.038099697992440E-015
 -3.650000000000000E-002    1.099458880522820E-014
 -3.640000000000000E-002    1.878865889146698E-014
 -3.630000000000000E-002    2.808817833794986E-014
 -3.620000000000000E-002    3.811667972098681E-014
 -3.610000000000000E-002    4.757998416369655E-014
 -3.600000000000000E-002    5.465638104537193E-014
 -3.590000000000000E-002    5.707947135762344E-014
 -3.580000000000000E-002    5.233636439837754E-014
 -3.570000000000000E-002    3.799079371165916E-014
 -3.560000000000000E-002    1.212042418382757E-014
 -3.550000000000000E-002   -2.616785169062507E-014
 -3.540000000000000E-002   -7.620879836049108E-014
 -3.530000000000000E-002   -1.353257121435682E-013
 -3.520000000000000E-002   -1.985608085543325E-013
 -3.510000000000000E-002   -2.587005837175751E-013
 -3.500000000000000E-002   -3.066922516646478E-013
 -3.490000000000000E-002   -3.325097420021249E-013
 -3.480000000000000E-002   -3.264672841757359E-013
 -3.470000000000000E-002   -2.808999432119640E-013
 -3.460000000000000E-002   -1.920407330619788E-013
 -3.450000000000000E-002   -6.183793109434738E-014
 -3.440000000000000E-002    1.006126134864177E-013
 -3.430000000000000E-002    2.783778996506677E-013
 -3.420000000000000E-002    4.470807768224135E-013
 -3.410000000000000E-002    5.766352801229029E-013
 -3.400000000000000E-002    6.344394076686152E-013
 -3.390000000000000E-002    5.899379876808431E-013
 -3.380000000000000E-002    4.202244804603084E-013
 -3.370000000000000E-002    1.160990127111555E-013
 -3.360000000000000E-002   -3.122260746073515E-013
 -3.350000000000000E-002   -8.307370142027213E-013
 -3.340000000000000E-002   -1.379553673676035E-012
 -3.330000000000000E-002   -1.874098089246869E-012
 -3.320000000000000E-002   -2.210147274133077E-012
 -3.310000000000000E-002   -2.273006829886317E-012
 -3.300000000000000E-002   -1.950503253680405E-012
 -3.290000000000000E-002   -1.148886800226214E-012
 -3.280000000000000E-002    1.898689377639581E-013
 -3.270000000000000E-002    2.071383343862701E-012
 -3.260000000000000E-002    4.435130816750438E-012
 -3.250000000000000E-002    7.146025127114994E-012
 -3.240000000000000E-002    9.993407494934650E-012
 -3.230000000000000E-002    1.269892360419698E-011
 -3.220000000000000E-002    1.493382367915931E-011
 -3.210000000000000E-002    1.634508931890438E-011
 -3.200000000000000E-002    1.658854870951345E-011
 -3.190000000000000E-002    1.536596847373692E-011
 -3.180000000000000E-002    1.246221880371994E-011
 -3.170000000000000E-002    7.778091508626749E-012
 -3.160000000000000E-002    1.354421311472335E-012
 -3.150000000000000E-002   -6.616173367850038E-012
 -3.140000000000000E-002   -1.579236570119678E-011
 -3.130000000000000E-002   -2.570267995501927E-011
 -3.120000000000000E-002   -3.577820478705677E-011
 -3.110000000000000E-002   -4.539605549396093E-011
 -3.100000000000000E-002   -5.392845711096113E-011
 -3.090000000000000E-002   -6.079111362492488E-011
 -3.080000000000000E-002   -6.548427548472671E-011
 -3.070000000000000E-002   -6.762061325017312E-011
 -3.060000000000000E-002   -6.693560333798384E-011
 -3.050000000000000E-002   -6.327894866278396E-011
 -3.040000000000000E-002   -5.658853528567321E-011
 -3.030000000000000E-002   -4.685190808987935E-011
 -3.020000000000000E-002   -3.406321902284603E-011
 -3.010000000000000E-002   -1.818564854637909E-011
 -3.000000000000000E-002    8.699260322062075E-013
 -2.990000000000000E-002    2.324028416092740E-011
 -2.980000000000000E-002    4.907232501511454E-011
 -2.970000000000000E-002    7.845020039232657E-011
 -2.960000000000000E-002    1.112905656464838E-010
 -2.950000000000000E-002    1.472157312845221E-010
 -2.940000000000000E-002    1.854203208656124E-010
 -2.930000000000000E-002    2.245523964336991E-010
 -2.920000000000000E-002    2.626318258945286E-010
 -2.910000000000000E-002    2.970291174510761E-010
 -2.900000000000000E-002    3.245235187804542E-010
 -2.890000000000000E-002    3.414525058016906E-010
 -2.880000000000000E-002    3.439545317485960E-010
 -2.870000000000000E-002    3.282948339173568E-010
 -2.860000000000000E-002    2.912516721675523E-010
 -2.850000000000000E-002    2.305286757380111E-010
 -2.840000000000000E-002    1.451499277211766E-010
 -2.830000000000000E-002    3.579031866835328E-011
 -2.820000000000000E-002   -9.500585815220750E-011
 -2.810000000000000E-002   -2.427577470922482E-010
 -2.800000000000000E-002   -4.011592386959802E-010
 -2.790000000000000E-002   -5.623776416445384E-010
 -2.780000000000000E-002   -7.175280345432595E-010
 -2.770000000000000E-002   -8.572892022922752E-010
 -2.760000000000000E-002   -9.726076285060756E-010
 -2.750000000000000E-002   -1.055420247393540E-009
 -2.740000000000000E-002   -1.099318667589561E-009
 -2.730000000000000E-002   -1.100079000227177E-009
 -2.720000000000000E-002   -1.055990019153843E-009
 -2.710000000000000E-002   -9.679346287487064E-010
 -2.700000000000000E-002   -8.392043173063737E-010
 -2.690000000000000E-002   -6.750605635267098E-010
 -2.680000000000000E-002   -4.820883196101981E-010
 -2.670000000000000E-002   -2.674183718220585E-010
 -2.660000000000000E-002   -3.791640119650562E-011
 -2.650000000000000E-002    2.005507306113726E-010
 -2.640000000000000E-002    4.436640307778061E-010
 -2.630000000000000E-002    6.889243511678737E-010
 -2.620000000000000E-002    9.355865535708897E-010
 -2.610000000000000E-002    1.184234936299375E-009
 -2.600000000000000E-002    1.436028292318784E-009
 -2.590000000000000E-002    1.691688614089095E-009
 -2.580000000000000E-002    1.950356121745439E-009
 -2.570000000000000E-002    2.208459722393917E-009
 -2.560000000000000E-002    2.458773672916174E-009
 -2.550000000000000E-002    2.689820711929236E-009
 -2.540000000000000E-002    2.885762976896833E-009
 -2.530000000000000E-002    3.026871575508639E-009
 -2.520000000000000E-002    3.090606241955250E-009
 -2.510000000000000E-002    3.053264605317696E-009
 -2.500000000000000E-002    2.892087270887722E-009
 -2.490000000000000E-002    2.587640769590614E-009
 -2.480000000000000E-002    2.126245897580516E-009
 -2.470000000000000E-002    1.502195272203550E-009
 -2.460000000000000E-002    7.195022573897091E-010
 -2.450000000000000E-002   -2.070449405219945E-010
 -2.440000000000000E-002   -1.251692840792599E-009
 -2.430000000000000E-002   -2.378481800244657E-009
 -2.420000000000000E-002   -3.542942194833354E-009
 -2.410000000000000E-002   -4.694618594454553E-009
 -2.400000000000000E-002   -5.780213143576283E-009
 -2.390000000000000E-002   -6.747067441128426E-009
 -2.380000000000000E-002   -7.546657754387745E-009
 -2.370000000000000E-002   -8.137759530475479E-009
 -2.360000000000000E-002   -8.488981166677692E-009
 -2.350000000000000E-002   -8.580407044836574E-009
 -2.340000000000000E-002   -8.404213289849675E-009
 -2.330000000000000E-002   -7.964209375094657E-009
 -2.320000000000000E-002   -7.274401153128279E-009
 -2.310000000000000E-002   -6.356775632071568E-009
 -2.300000000000000E-002   -5.238603425886730E-009
 -2.290000000000000E-002   -3.949618321653060E-009
 -2.280000000000000E-002   -2.519443731797561E-009
 -2.270000000000000E-002   -9.756141385299358E-010
 -2.260000000000000E-002    6.575451653941887E-010
 -2.250000000000000E-002    2.359017712570941E-009
 -2.240000000000000E-002    4.110159358168118E-009
 -2.230000000000000E-002    5.892849090909522E-009
 -2.220000000000000E-002    7.686991293089937E-009
 -2.210000000000000E-002    9.467740587482568E-009
 -2.200000000000000E-002    1.120289277768258E-008
 -2.190000000000000E-002    1.285089969210351E-008
 -2.180000000000000E-002    1.435992030757576E-008
 -2.170000000000000E-002    1.566822834534018E-008
 -2.160000000000000E-002    1.670615145420425E-008
 -2.150000000000000E-002    1.739954177066813E-008
 -2.140000000000000E-002    1.767458706422567E-008
 -2.130000000000000E-002    1.746359546152027E-008
 -2.120000000000000E-002    1.671124056387464E-008
 -2.110000000000000E-002    1.538065082250763E-008
 -2.100000000000000E-002    1.345870086251108E-008
 -2.090000000000000E-002    1.095989320260987E-008
 -2.080000000000000E-002    7.928332284086660E-009
 -2.070000000000000E-002    4.437457277513909E-009
 -2.060000000000000E-002    5.874130569134858E-010
 -2.050000000000000E-002   -3.499817982401053E-009
 -2.040000000000000E-002   -7.687178436823148E-009
 -2.030000000000000E-002   -1.183063896035293E-008
 -2.020000000000000E-002   -1.578793051700076E-008
 -2.010000000000000E-002   -1.942712797856328E-008
 -2.000000000000000E-002   -2.263429798673254E-008
 -1.990000000000000E-002   -2.531949824967376E-008
 -1.980000000000000E-002   -2.742060506576572E-008
 -1.970000000000000E-002   -2.890462215790635E-008
 -1.960000000000000E-002   -2.976642105773015E-008
 -1.950000000000000E-002   -3.002509304156874E-008
 -1.940000000000000E-002   -2.971836623271372E-008
 -1.930000000000000E-002   -2.889571927440544E-008
 -1.920000000000000E-002   -2.761094833747258E-008
 -1.910000000000000E-002   -2.591501193346397E-008
 -1.900000000000000E-002   -2.384991029187842E-008
 -1.890000000000000E-002   -2.144421438466518E-008
 -1.880000000000000E-002   -1.871069317486733E-008
 -1.870000000000000E-002   -1.564618486317591E-008
 -1.860000000000000E-002   -1.223361636828714E-008
 -1.850000000000000E-002   -8.445787234642728E-009
 -1.840000000000000E-002   -4.250305247656912E-009
 -1.830000000000000E-002    3.850992198727303E-010
 -1.820000000000000E-002    5.487735574071624E-009
 -1.810000000000000E-002    1.107643569528454E-008
 -1.800000000000000E-002    1.716008893037159E-008
 -1.790000000000000E-002    2.373875624303300E-008
 -1.780000000000000E-002    3.080762994087404E-008
 -1.770000000000000E-002    3.836379963563897E-008
 -1.760000000000000E-002    4.641544659158128E-008
 -1.750000000000000E-002    5.499282353900432E-008
 -1.740000000000000E-002    6.416012446133328E-008
 -1.730000000000000E-002    7.402714556952277E-008
 -1.720000000000000E-002    8.475967362838143E-008
 -1.710000000000000E-002    9.658750969626782E-008
 -1.700000000000000E-002    1.098091917978274E-007
 -1.690000000000000E-002    1.247927732435997E-007
 -1.680000000000000E-002    1.419723671095415E-007
 -1.670000000000000E-002    1.618404206230741E-007
 -1.660000000000000E-002    1.849362457768178E-007
 -1.650000000000000E-002    2.118314803653254E-007
 -1.640000000000000E-002    2.431137235415422E-007
 -1.630000000000000E-002    2.793694695464117E-007
 -1.620000000000000E-002    3.211678957691495E-007
 -1.610000000000000E-002    3.690467871609598E-007
 -1.600000000000000E-002    4.235018608763926E-007
 -1.590000000000000E-002    4.849805309431765E-007
 -1.580000000000000E-002    5.538804693504220E-007
 -1.570000000000000E-002    6.305532329983162E-007
 -1.560000000000000E-002    7.153128660913086E-007
 -1.550000000000000E-002    8.084485826487309E-007
 -1.540000000000000E-002    9.102399310248886E-007
 -1.530000000000000E-002    1.020974127874522E-006
 -1.520000000000000E-002    1.140962939950459E-006
 -1.510000000000000E-002    1.270558010142465E-006
 -1.500000000000000E-002    1.410162852357828E-006
 -1.490000000000000E-002    1.560240881007040E-006
 -1.480000000000000E-002    1.721318714210882E-006
 -1.470000000000000E-002    1.893983081407420E-006
 -1.460000000000000E-002    2.078874302721678E-006
 -1.450000000000000E-002    2.276674737979758E-006
 -1.440000000000000E-002    2.488094555914069E-006
 -1.430000000000000E-002    2.713857753859891E-006
 -1.420000000000000E-002    2.954687778723299E-006
 -1.410000000000000E-002    3.211297475033647E-006
 -1.400000000000000E-002    3.484383180995140E-006
 -1.390000000000000E-002    3.774626248648739E-006
 -1.380000000000000E-002    4.082699699662159E-006
 -1.370000000000000E-002    4.409285160614990E-006
 -1.360000000000000E-002    4.755093358667239E-006
 -1.350000000000000E-002    5.120893282306919E-006
 -1.340000000000000E-002    5.507541668048767E-006
 -1.330000000000000E-002    5.916014535903542E-006
 -1.320000000000000E-002    6.347437295211496E-006
 -1.310000000000000E-002    6.803107623292951E-006
 -1.300000000000000E-002    7.284512334842060E-006
 -1.290000000000000E-002    7.793335765309055E-006
 -1.280000000000000E-002    8.331454492465869E-006
 -1.270000000000000E-002    8.900921679273965E-006
 -1.260000000000000E-002    9.503944374680771E-006
 -1.250000000000000E-002    1.014284985121553E-005
 -1.240000000000000E-002    1.082004598116712E-005
 -1.230000000000000E-002    1.153798447419848E-005
 -1.220000000000000E-002    1.229912333954318E-005
 -1.210000000000000E-002    1.310589719297567E-005
 -1.200000000000000E-002    1.396069630517911E-005
 -1.190000000000000E-002    1.486586233508984E-005
 -1.180000000000000E-002    1.582369602138929E-005
 -1.170000000000000E-002    1.683647783542998E-005
 -1.160000000000000E-002    1.790651140368784E-005
 -1.150000000000000E-002    1.903616551066304E-005
 -1.140000000000000E-002    2.022793360174416E-005
 -1.130000000000000E-002    2.148449214206121E-005
 -1.120000000000000E-002    2.280876074103906E-005
 -1.110000000000000E-002    2.420395116879750E-005
 -1.100000000000000E-002    2.567360605313036E-005
 -1.090000000000000E-002    2.722162937607494E-005
 -1.080000000000000E-002    2.885229828756088E-005
 -1.070000000000000E-002    3.057025453196272E-005
 -1.060000000000000E-002    3.238048935530134E-005
 -1.050000000000000E-002    3.428832191213392E-005
 -1.040000000000000E-002    3.629935536424021E-005
 -1.030000000000000E-002    3.841945261727456E-005
 -1.020000000000000E-002    4.065470771392386E-005
 -1.010000000000000E-002    4.301141743119500E-005
 -1.000000000000000E-002    4.549609694513481E-005
 -9.899999999999999E-003    4.811547759513615E-005
 -9.800000000000000E-003    5.087654227311972E-005
 -9.699999999999999E-003    5.378658170136486E-005
 -9.599999999999999E-003    5.685323541099475E-005
 -9.500000000000000E-003    6.008458034281112E-005
 -9.399999999999999E-003    6.348918126784133E-005
 -9.299999999999999E-003    6.707615417221306E-005
 -9.200000000000000E-003    7.085522994441694E-005
 -9.099999999999999E-003    7.483676772722589E-005
 -8.999999999999999E-003    7.903178131885515E-005
 -8.900000000000000E-003    8.345192053825936E-005
 -8.799999999999999E-003    8.810942653737465E-005
 -8.699999999999999E-003    9.301709337148111E-005
 -8.600000000000000E-003    9.818819962008710E-005
 -8.499999999999999E-003    1.036364208124513E-004
 -8.399999999999999E-003    1.093757723430177E-004
 -8.300000000000000E-003    1.154205392087736E-004
 -8.199999999999999E-003    1.217852493858211E-004
 -8.100000000000000E-003    1.284846358272676E-004
 -8.000000000000000E-003    1.355336583776573E-004
 -7.899999999999999E-003    1.429475530522176E-004
 -7.800000000000000E-003    1.507418984424067E-004
 -7.699999999999999E-003    1.589327080479277E-004
 -7.599999999999999E-003    1.675365490505847E-004
 -7.499999999999999E-003    1.765706294621274E-004
 -7.399999999999999E-003    1.860529808750106E-004
 -7.299999999999999E-003    1.960025011272503E-004
 -7.199999999999999E-003    2.064391127776495E-004
 -7.100000000000000E-003    2.173837764771694E-004
 -6.999999999999999E-003    2.288585512479384E-004
 -6.899999999999999E-003    2.408866072970134E-004
 -6.800000000000000E-003    2.534922320243771E-004
 -6.699999999999999E-003    2.667007527306322E-004
 -6.599999999999999E-003    2.805385604529519E-004
 -6.499999999999999E-003    2.950329927219800E-004
 -6.399999999999999E-003    3.102123194603304E-004
 -6.299999999999999E-003    3.261057655742545E-004
 -6.199999999999999E-003    3.427434589972976E-004
 -6.100000000000000E-003    3.601563922120773E-004
 -5.999999999999999E-003    3.783765987273671E-004
 -5.899999999999999E-003    3.974371463645122E-004
 -5.800000000000000E-003    4.173722730613307E-004
 -5.699999999999999E-003    4.382174502631314E-004
 -5.599999999999999E-003    4.600095965661839E-004
 -5.499999999999999E-003    4.827870429509980E-004
 -5.399999999999999E-003    5.065898640666416E-004
 -5.299999999999999E-003    5.314597757007343E-004
 -5.199999999999999E-003    5.574402285665712E-004
 -5.099999999999999E-003    5.845764920893681E-004
 -4.999999999999999E-003    6.129157259303064E-004
 -4.899999999999999E-003    6.425067576009491E-004
 -4.799999999999999E-003    6.734002235618529E-004
 -4.699999999999999E-003    7.056485255237294E-004
 -4.599999999999999E-003    7.393056562405044E-004
 -4.499999999999999E-003    7.744272173637118E-004
 -4.399999999999999E-003    8.110704513985877E-004
 -4.299999999999999E-003    8.492941933535061E-004
 -4.199999999999999E-003    8.891589189297740E-004
 -4.099999999999999E-003    9.307268395792002E-004
 -3.999999999999999E-003    9.740617288717198E-004
 -3.899999999999999E-003    1.019229593626340E-003
 -3.799999999999999E-003    1.066298090159219E-003
 -3.699999999999999E-003    1.115337313574790E-003
 -3.599999999999999E-003    1.166419546779701E-003
 -3.499999999999999E-003    1.219619512794913E-003
 -3.399999999999999E-003    1.275014362643338E-003
 -3.299999999999999E-003    1.332684049478886E-003
 -3.199999999999999E-003    1.392711025953215E-003
 -3.099999999999999E-003    1.455180515662439E-003
 -2.999999999999999E-003    1.520180480817888E-003
 -2.899999999999999E-003    1.587801436569043E-003
 -2.799999999999999E-003    1.658136745441525E-003
 -2.699999999999999E-003    1.731282181967865E-003
 -2.599999999999999E-003    1.807336148599886E-003
 -2.499999999999999E-003    1.886399526973095E-003
 -2.399999999999999E-003    1.968575773677227E-003
 -2.299999999999999E-003    2.053970684349536E-003
 -2.199999999999999E-003    2.142692479042367E-003
 -2.099999999999999E-003    2.234852010008424E-003
 -1.999999999999999E-003    2.330562465904182E-003
 -1.899999999999999E-003    2.429940179066943E-003
 -1.799999999999999E-003    2.533103538216197E-003
 -1.699999999999999E-003    2.640173888007917E-003
 -1.599999999999999E-003    2.751275776351700E-003
 -1.499999999999999E-003    2.866536303748817E-003
 -1.399999999999999E-003    2.986085489906189E-003
 -1.299999999999999E-003    3.110056449965488E-003
 -1.199999999999999E-003    3.238585501756022E-003
 -1.099999999999999E-003    3.371811867703237E-003
 -9.999999999999989E-004    3.509877552547763E-003
 -8.999999999999990E-004    3.652927886519791E-003
 -7.999999999999990E-004    3.801111039229369E-003
 -6.999999999999989E-004    3.954577758502777E-003
 -5.999999999999990E-004    4.113481955445055E-003
 -4.999999999999989E-004    4.277979889757521E-003
 -3.999999999999989E-004    4.448231578509635E-003
 -2.999999999999989E-004    4.624398589527976E-003
 -1.999999999999989E-004    4.806645684314874E-003
 -9.999999999999892E-005    4.995141238211273E-003
  1.084202172485504E-018    5.190055275509511E-003
  1.000000000000011E-004    5.391561649638794E-003
  2.000000000000011E-004    5.599837602176375E-003
  3.000000000000011E-004    5.815062753275521E-003
  4.000000000000011E-004    6.037420624089066E-003
  5.000000000000011E-004    6.267098503663994E-003
  6.000000000000011E-004    6.504287416463071E-003
  7.000000000000011E-004    6.749181988762487E-003
  8.000000000000011E-004    7.001980572902486E-003
  9.000000000000012E-004    7.262886093472339E-003
  1.000000000000001E-003    7.532105020086730E-003
  1.100000000000001E-003    7.809848094424137E-003
  1.200000000000001E-003    8.096329937264170E-003
  1.300000000000001E-003    8.391770054416754E-003
  1.400000000000001E-003    8.696389944609265E-003
  1.500000000000001E-003    9.010416360682821E-003
  1.600000000000001E-003    9.334079303806517E-003
  1.700000000000001E-003    9.667611280146324E-003
  1.800000000000001E-003    1.001124957426199E-002
  1.900000000000001E-003    1.036523453688712E-002
  2.000000000000001E-003    1.072980909631741E-002
  2.100000000000001E-003    1.110521969237983E-002
  2.200000000000001E-003    1.149171578617282E-002
  2.300000000000001E-003    1.188955079214643E-002
  2.400000000000001E-003    1.229898030194606E-002
  2.500000000000001E-003    1.272026443083633E-002
  2.600000000000001E-003    1.315366485404099E-002
  2.700000000000001E-003    1.359944847872010E-002
  2.800000000000001E-003    1.405788446278031E-002
  2.900000000000001E-003    1.452924499515016E-002
  3.000000000000001E-003    1.501380652577836E-002
  3.100000000000001E-003    1.551184801779412E-002
  3.200000000000001E-003    1.602365018764951E-002
  3.300000000000001E-003    1.654949785976046E-002
  3.400000000000001E-003    1.708967789783386E-002
  3.500000000000001E-003    1.764447821144090E-002
  3.600000000000001E-003    1.821418951871746E-002
  3.700000000000001E-003    1.879910401810108E-002
  3.800000000000001E-003    1.939951710607120E-002
  3.900000000000001E-003    2.001572242715163E-002
  4.000000000000001E-003    2.064801860204550E-002
  4.100000000000001E-003    2.129670160946717E-002
  4.200000000000001E-003    2.196207124271511E-002
  4.300000000000001E-003    2.264442762892292E-002
  4.400000000000001E-003    2.334407309227520E-002
  4.500000000000001E-003    2.406130952702881E-002
  4.600000000000002E-003    2.479644244962518E-002
  4.700000000000001E-003    2.554977589968910E-002
  4.800000000000001E-003    2.632161768015361E-002
  4.900000000000002E-003    2.711227566664021E-002
  5.000000000000001E-003    2.792205605608852E-002
  5.100000000000001E-003    2.875126893497166E-002
  5.200000000000001E-003    2.960022196991441E-002
  5.300000000000002E-003    3.046922469417846E-002
  5.400000000000001E-003    3.135858106219153E-002
  5.500000000000001E-003    3.226859989417086E-002
  5.600000000000002E-003    3.319958182053312E-002
  5.700000000000001E-003    3.415183104367840E-002
  5.800000000000001E-003    3.512564550630061E-002
  5.900000000000002E-003    3.612132198186496E-002
  6.000000000000001E-003    3.713915117717378E-002
  6.100000000000001E-003    3.817942636174330E-002
  6.200000000000002E-003    3.924243408137829E-002
  6.300000000000002E-003    4.032845626401638E-002
  6.400000000000001E-003    4.143777656433527E-002
  6.500000000000001E-003    4.257067206281024E-002
  6.600000000000002E-003    4.372741654461099E-002
  6.700000000000001E-003    4.490828048265668E-002
  6.800000000000001E-003    4.611353043564476E-002
  6.900000000000002E-003    4.734343109719907E-002
  7.000000000000001E-003    4.859823968803385E-002
  7.100000000000001E-003    4.987821382923176E-002
  7.200000000000002E-003    5.118359760472790E-002
  7.300000000000002E-003    5.251463707202998E-002
  7.400000000000001E-003    5.387156490730498E-002
  7.500000000000001E-003    5.525461215784604E-002
  7.600000000000002E-003    5.666400118816095E-002
  7.700000000000001E-003    5.809994898795427E-002
  7.800000000000001E-003    5.956266646148285E-002
  7.900000000000001E-003    6.105234490214395E-002
  8.000000000000002E-003    6.256918195210041E-002
  8.100000000000001E-003    6.411336358887006E-002
  8.200000000000001E-003    6.568506414503823E-002
  8.300000000000002E-003    6.728445297051262E-002
  8.400000000000001E-003    6.891169503534288E-002
  8.500000000000002E-003    7.056693580094199E-002
  8.600000000000002E-003    7.225031424116046E-002
  8.700000000000001E-003    7.396196629366231E-002
  8.800000000000002E-003    7.570201878697866E-002
  8.900000000000002E-003    7.747057845950060E-002
  9.000000000000001E-003    7.926774239358871E-002
  9.100000000000002E-003    8.109359886352482E-002
  9.200000000000002E-003    8.294822698763117E-002
  9.300000000000001E-003    8.483167792976247E-002
  9.400000000000002E-003    8.674400114600309E-002
  9.500000000000001E-003    8.868522779359397E-002
  9.600000000000001E-003    9.065536769619455E-002
  9.700000000000002E-003    9.265441949395606E-002
  9.800000000000001E-003    9.468236862415615E-002
  9.900000000000001E-003    9.673916871406713E-002
  1.000000000000000E-002    9.882476904611226E-002
  1.010000000000000E-002    0.100939093184052     
  1.020000000000000E-002    0.103082050708836     
  1.030000000000000E-002    0.105253532212907     
  1.040000000000000E-002    0.107453399773563     
  1.050000000000000E-002    0.109681501372325     
  1.060000000000000E-002    0.111937655257302     
  1.070000000000000E-002    0.114221673983463     
  1.080000000000000E-002    0.116533324838046     
  1.090000000000000E-002    0.118872364325267     
  1.100000000000000E-002    0.121238519499536     
  1.110000000000000E-002    0.123631492833100     
  1.120000000000000E-002    0.126050953733401     
  1.130000000000000E-002    0.128496549827700     
  1.140000000000000E-002    0.130967898581968     
  1.150000000000000E-002    0.133464576336522     
  1.160000000000000E-002    0.135986139138589     
  1.170000000000000E-002    0.138532113352729     
  1.180000000000000E-002    0.141101988781170     
  1.190000000000000E-002    0.143695224930695     
  1.200000000000000E-002    0.146311234865177     
  1.210000000000000E-002    0.148949404838865     
  1.220000000000000E-002    0.151609082547159     
  1.230000000000000E-002    0.154289582858926     
  1.240000000000000E-002    0.156990175753773     
  1.250000000000000E-002    0.159710097464866     
  1.260000000000000E-002    0.162448542239560     
  1.270000000000000E-002    0.165204652340001     
  1.280000000000000E-002    0.167977527645149     
  1.290000000000000E-002    0.170766224706247     
  1.300000000000000E-002    0.173569752347440     
  1.310000000000000E-002    0.176387076001802     
  1.320000000000000E-002    0.179217101325259     
  1.330000000000000E-002    0.182058675740091     
  1.340000000000000E-002    0.184910627499745     
  1.350000000000000E-002    0.187771692179098     
  1.360000000000000E-002    0.190640575507596     
  1.370000000000000E-002    0.193515917563821     
  1.380000000000000E-002    0.196396301983129     
  1.390000000000000E-002    0.199280259475410     
  1.400000000000000E-002    0.202166232160144     
  1.410000000000000E-002    0.205052643391480     
  1.420000000000000E-002    0.207937817237619     
  1.430000000000000E-002    0.210820021464851     
  1.440000000000000E-002    0.213697469372874     
  1.450000000000000E-002    0.216568293112760     
  1.460000000000000E-002    0.219430551916264     
  1.470000000000000E-002    0.222282254208139     
  1.480000000000000E-002    0.225121322417629     
  1.490000000000000E-002    0.227945600338792     
  1.500000000000000E-002    0.230752849112256     
  1.510000000000000E-002    0.233540777175958     
  1.520000000000000E-002    0.236307023221757     
  1.530000000000000E-002    0.239049113449473     
  1.540000000000000E-002    0.241764506468210     
  1.550000000000000E-002    0.244450587007066     
  1.560000000000000E-002    0.247104654460964     
  1.570000000000000E-002    0.249723904015413     
  1.580000000000000E-002    0.252305489486197     
  1.590000000000000E-002    0.254846439913399     
  1.600000000000000E-002    0.257343690240776     
  1.610000000000000E-002    0.259794110844951     
  1.620000000000000E-002    0.262194483596073     
  1.630000000000000E-002    0.264541464244389     
  1.640000000000000E-002    0.266831646582959     
  1.650000000000000E-002    0.269061532251104     
  1.660000000000000E-002    0.271227500551974     
  1.670000000000000E-002    0.273325855819532     
  1.680000000000000E-002    0.275352791007776     
  1.690000000000000E-002    0.277304420340835     
  1.700000000000000E-002    0.279176766189603     
  1.710000000000000E-002    0.280965717687028     
  1.720000000000000E-002    0.282667099399365     
  1.730000000000000E-002    0.284276662638914     
  1.740000000000000E-002    0.285789992599237     
  1.750000000000000E-002    0.287202627229695     
  1.760000000000000E-002    0.288509973109303     
  1.770000000000000E-002    0.289707376416466     
  1.780000000000000E-002    0.290790029951866     
  1.790000000000000E-002    0.291753109432095     
  1.800000000000000E-002    0.292591628425606     
  1.810000000000000E-002    0.293300522382274     
  1.820000000000000E-002    0.293874629445486     
  1.830000000000000E-002    0.294308716569202     
  1.840000000000000E-002    0.294597424488283     
  1.850000000000000E-002    0.294735352031493     
  1.860000000000000E-002    0.294716975926323     
  1.870000000000000E-002    0.294536668919772     