 -4.000000000000000E-002    0.000000000000000E+000
 -3.990000000000000E-002    0.000000000000000E+000
 -3.980000000000000E-002    0.000000000000000E+000
 -3.970000000000000E-002    0.000000000000000E+000
 -3.960000000000000E-002    4.082246644011647E-018
 -3.950000000000000E-002    3.593901529728675E-017
 -3.940000000000000E-002    1.742216965684127E-016
 -3.930000000000000E-002    6.129382174101897E-016
 -3.920000000000000E-002    1.743008505693798E-015
 -3.910000000000000E-002    4.235293741628194E-015
 -3.900000000000000E-002    9.084569149728559E-015
 -3.890000000000000E-002    1.755288214252151E-014
 -3.880000000000000E-002    3.093775210988499E-014
 -3.870000000000000E-002    5.009610672573483E-014
 -3.860000000000000E-002    7.468848794691587E-014
 -3.850000000000000E-002    1.021758614933697E-013
 -3.840000000000000E-002    1.267008537515550E-013
 -3.830000000000000E-002    1.381033153604784E-013
 -3.820000000000000E-002    1.214317531317721E-013
 -3.810000000000000E-002    5.738244079610971E-014
 -3.800000000000000E-002   -7.591120545951177E-014
 -3.790000000000000E-002   -2.994386354859699E-013
 -3.780000000000000E-002   -6.281739603585017E-013
 -3.770000000000000E-002   -1.064566941641537E-012
 -3.760000000000000E-002   -1.591446433199174E-012
 -3.750000000000000E-002   -2.165581903341705E-012
 -3.740000000000000E-002   -2.713514147620626E-012
 -3.730000000000000E-002   -3.131420317888390E-012
 -3.720000000000000E-002   -3.290616094542591E-012
 -3.710000000000000E-002   -3.049745869601178E-012
 -3.700000000000000E-002   -2.273764696812588E-012
 -3.690000000000000E-002   -8.585422244290803E-013
 -3.680000000000000E-002    1.241530619393542E-012
 -3.670000000000000E-002    3.986926833628180E-012
 -3.660000000000000E-002    7.232380634202564E-012
 -3.650000000000000E-002    1.071770505636027E-011
 -3.640000000000000E-002    1.407491770536376E-011
 -3.630000000000000E-002    1.685501554970006E-011
 -3.620000000000000E-002    1.857519242889320E-011
 -3.610000000000000E-002    1.878391748417384E-011
 -3.600000000000000E-002    1.713754815430808E-011
 -3.590000000000000E-002    1.347857891011327E-011
 -3.580000000000000E-002    7.902887051860290E-012
 -3.570000000000000E-002    8.021533952756687E-013
 -3.560000000000000E-002   -7.131517708923667E-012
 -3.550000000000000E-002   -1.494850984240530E-011
 -3.540000000000000E-002   -2.153626911046341E-011
 -3.530000000000000E-002   -2.576221397420761E-011
 -3.520000000000000E-002   -2.665305776235315E-011
 -3.510000000000000E-002   -2.359024204645548E-011
 -3.500000000000000E-002   -1.649420204141337E-011
 -3.490000000000000E-002   -5.966257990444830E-012
 -3.480000000000000E-002    6.643013332436049E-012
 -3.470000000000000E-002    1.926504241949587E-011
 -3.460000000000000E-002    2.926039382483501E-011
 -3.450000000000000E-002    3.368364374008840E-011
 -3.440000000000000E-002    2.965086474481301E-011
 -3.430000000000000E-002    1.477656886782259E-011
 -3.420000000000000E-002   -1.236899190667943E-011
 -3.410000000000000E-002   -5.184277755159165E-011
 -3.400000000000000E-002   -1.020175145635171E-010
 -3.390000000000000E-002   -1.594366202203372E-010
 -3.380000000000000E-002   -2.188831603879100E-010
 -3.370000000000000E-002   -2.736878084923271E-010
 -3.360000000000000E-002   -3.162715528936233E-010
 -3.350000000000000E-002   -3.388863814020108E-010
 -3.340000000000000E-002   -3.344850916920054E-010
 -3.330000000000000E-002   -2.976247005200949E-010
 -3.320000000000000E-002   -2.252917221412174E-010
 -3.310000000000000E-002   -1.175339758913433E-010
 -3.300000000000000E-002    2.220306756585691E-011
 -3.290000000000000E-002    1.871093611292100E-010
 -3.280000000000000E-002    3.674445919406858E-010
 -3.270000000000000E-002    5.513537882437292E-010
 -3.260000000000000E-002    7.259910765654955E-010
 -3.250000000000000E-002    8.788274534670499E-010
 -3.240000000000000E-002    9.989815353854191E-010
 -3.230000000000000E-002    1.078393729897394E-009
 -3.220000000000000E-002    1.112668049482196E-009
 -3.210000000000000E-002    1.101437770651191E-009
 -3.200000000000000E-002    1.048164169724341E-009
 -3.190000000000000E-002    9.593520529946970E-010
 -3.180000000000000E-002    8.432500891312238E-010
 -3.170000000000000E-002    7.081877201692294E-010
 -3.160000000000000E-002    5.607715885339612E-010
 -3.150000000000000E-002    4.042138746489278E-010
 -3.140000000000000E-002    2.370782619790120E-010
 -3.130000000000000E-002    5.270492881538019E-011
 -3.120000000000000E-002   -1.604881381399361E-010
 -3.110000000000000E-002   -4.177321940624128E-010
 -3.100000000000000E-002   -7.356942709481004E-010
 -3.090000000000000E-002   -1.129492959780819E-009
 -3.080000000000000E-002   -1.609247416571191E-009
 -3.070000000000000E-002   -2.176568801428049E-009
 -3.060000000000000E-002   -2.821473558637684E-009
 -3.050000000000000E-002   -3.520204476865454E-009
 -3.040000000000000E-002   -4.234398776396241E-009
 -3.030000000000000E-002   -4.911922492134462E-009
 -3.020000000000000E-002   -5.489524144232831E-009
 -3.010000000000000E-002   -5.897252258941095E-009
 -3.000000000000000E-002   -6.064356778902601E-009
 -2.990000000000000E-002   -5.926183177797300E-009
 -2.980000000000000E-002   -5.431392739753502E-009
 -2.970000000000000E-002   -4.548734388951432E-009
 -2.960000000000000E-002   -3.272569293084932E-009
 -2.950000000000000E-002   -1.626413153606225E-009
 -2.940000000000000E-002    3.360705778984325E-010
 -2.930000000000000E-002    2.532952618286790E-009
 -2.920000000000000E-002    4.858819670353434E-009
 -2.910000000000000E-002    7.192146625138831E-009
 -2.900000000000000E-002    9.404635703527724E-009
 -2.890000000000000E-002    1.137164122288679E-008
 -2.880000000000000E-002    1.298260388232118E-008
 -2.870000000000000E-002    1.415036497205146E-008
 -2.860000000000000E-002    1.481829639210594E-008
 -2.850000000000000E-002    1.496437148427364E-008
 -2.840000000000000E-002    1.460162145349047E-008
 -2.830000000000000E-002    1.377481123269294E-008
 -2.820000000000000E-002    1.255361543911370E-008
 -2.810000000000000E-002    1.102299393825837E-008
 -2.800000000000000E-002    9.271860672395681E-009
 -2.790000000000000E-002    7.381372575327988E-009
 -2.780000000000000E-002    5.414311216543903E-009
 -2.770000000000000E-002    3.406956930490636E-009
 -2.760000000000000E-002    1.364636989818165E-009
 -2.750000000000000E-002   -7.382517097902296E-010
 -2.740000000000000E-002   -2.953448791996922E-009
 -2.730000000000000E-002   -5.349530963281612E-009
 -2.720000000000000E-002   -7.998960886487674E-009
 -2.710000000000000E-002   -1.096281894584949E-008
 -2.700000000000000E-002   -1.427496181161044E-008
 -2.690000000000000E-002   -1.792752086396330E-008
 -2.680000000000000E-002   -2.185966757457725E-008
 -2.670000000000000E-002   -2.595131181665720E-008
 -2.660000000000000E-002   -3.002296611510210E-008
 -2.650000000000000E-002   -3.384239621307436E-008
 -2.640000000000000E-002   -3.713794093520420E-008
 -2.630000000000000E-002   -3.961765355224855E-008
 -2.620000000000000E-002   -4.099270483333021E-008
 -2.610000000000000E-002   -4.100293613551868E-008
 -2.600000000000000E-002   -3.944208540154365E-008
 -2.590000000000000E-002   -3.618011245032360E-008
 -2.580000000000000E-002   -3.118022727156670E-008
 -2.570000000000000E-002   -2.450865365893056E-008
 -2.560000000000000E-002   -1.633585888686426E-008
 -2.550000000000000E-002   -6.928776845608380E-009
 -2.540000000000000E-002    3.365483666629236E-009
 -2.530000000000000E-002    1.414309675803827E-008
 -2.520000000000000E-002    2.497199944278154E-008
 -2.510000000000000E-002    3.542271050009469E-008
 -2.500000000000000E-002    4.509845450632631E-008
 -2.490000000000000E-002    5.366166587818911E-008
 -2.480000000000000E-002    6.085420959549552E-008
 -2.470000000000000E-002    6.650936314060646E-008
 -2.460000000000000E-002    7.055446151920551E-008
 -2.450000000000000E-002    7.300401660423273E-008
 -2.440000000000000E-002    7.394433523751562E-008
 -2.430000000000000E-002    7.351144451820625E-008
 -2.420000000000000E-002    7.186497062945087E-008
 -2.410000000000000E-002    6.916109436291778E-008
 -2.400000000000000E-002    6.552785966941622E-008
 -2.390000000000000E-002    6.104584483466877E-008
 -2.380000000000000E-002    5.573669834964159E-008
 -2.370000000000000E-002    4.956115644297071E-008
 -2.360000000000000E-002    4.242710911128674E-008
 -2.350000000000000E-002    3.420713032421240E-008
 -2.340000000000000E-002    2.476379314311744E-008
 -2.330000000000000E-002    1.398010363075926E-008
 -2.320000000000000E-002    1.791744878987377E-009
 -2.310000000000000E-002   -1.178258528252074E-008
 -2.300000000000000E-002   -2.661631656910924E-008
 -2.290000000000000E-002   -4.245885594129398E-008
 -2.280000000000000E-002   -5.893046882979790E-008
 -2.270000000000000E-002   -7.552948651731258E-008
 -2.260000000000000E-002   -9.165186453981612E-008
 -2.250000000000000E-002   -1.066218121527630E-007
 -2.240000000000000E-002   -1.197310162907288E-007
 -2.230000000000000E-002   -1.302830184888371E-007
 -2.220000000000000E-002   -1.376386229819998E-007
 -2.210000000000000E-002   -1.412580458138841E-007
 -2.200000000000000E-002   -1.407356632289221E-007
 -2.190000000000000E-002   -1.358238113811574E-007
 -2.180000000000000E-002   -1.264430888115049E-007
 -2.170000000000000E-002   -1.126780041738408E-007
 -2.160000000000000E-002   -9.475798225393301E-008
 -2.150000000000000E-002   -7.302527327406685E-008
 -2.140000000000000E-002   -4.789265624349053E-008
 -2.130000000000000E-002   -1.979461590831728E-008
 -2.120000000000000E-002    1.086339221766506E-008
 -2.110000000000000E-002    4.375309342043433E-008
 -2.100000000000000E-002    7.866442475860370E-008
 -2.090000000000000E-002    1.155357288149478E-007
 -2.080000000000000E-002    1.544704902838419E-007
 -2.070000000000000E-002    1.957391036466834E-007
 -2.060000000000000E-002    2.397658012781948E-007
 -2.050000000000000E-002    2.871020932330476E-007
 -2.040000000000000E-002    3.383898037592691E-007
 -2.030000000000000E-002    3.943170408281891E-007
 -2.020000000000000E-002    4.555719280043823E-007
 -2.010000000000000E-002    5.227982610864509E-007
 -2.000000000000000E-002    5.965583182694578E-007
 -1.990000000000000E-002    6.773056029898728E-007
 -1.980000000000000E-002    7.653709244715359E-007
 -1.970000000000000E-002    8.609631391282787E-007
 -1.960000000000000E-002    9.641843185009597E-007
 -1.950000000000000E-002    1.075058151781785E-006
 -1.940000000000000E-002    1.193568959734345E-006
 -1.930000000000000E-002    1.319707214661661E-006
 -1.920000000000000E-002    1.453517217933972E-006
 -1.910000000000000E-002    1.595142656260146E-006
 -1.900000000000000E-002    1.744864906562590E-006
 -1.890000000000000E-002    1.903130269492700E-006
 -1.880000000000000E-002    2.070563544175949E-006
 -1.870000000000000E-002    2.247966252218025E-006
 -1.860000000000000E-002    2.436299046698997E-006
 -1.850000000000000E-002    2.636650858374059E-006
 -1.840000000000000E-002    2.850195731028957E-006
 -1.830000000000000E-002    3.078143127572870E-006
 -1.820000000000000E-002    3.321686709089798E-006
 -1.810000000000000E-002    3.581956072155619E-006
 -1.800000000000000E-002    3.859976849614592E-006
 -1.790000000000000E-002    4.156644701569593E-006
 -1.780000000000000E-002    4.472716642070521E-006
 -1.770000000000000E-002    4.808822439455383E-006
 -1.760000000000000E-002    5.165494915065619E-006
 -1.750000000000000E-002    5.543221195284289E-006
 -1.740000000000000E-002    5.942507960957495E-006
 -1.730000000000000E-002    6.363958364362183E-006
 -1.720000000000000E-002    6.808355232821958E-006
 -1.710000000000000E-002    7.276743339380844E-006
 -1.700000000000000E-002    7.770499241215605E-006
 -1.690000000000000E-002    8.291391725895613E-006
 -1.680000000000000E-002    8.841617156124920E-006
 -1.670000000000000E-002    9.423815049279393E-006
 -1.660000000000000E-002    1.004105162847919E-005
 -1.650000000000000E-002    1.069678460203632E-005
 -1.640000000000000E-002    1.139480021821608E-005
 -1.630000000000000E-002    1.213913446242378E-005
 -1.620000000000000E-002    1.293398311036895E-005
 -1.610000000000000E-002    1.378360829512681E-005
 -1.600000000000000E-002    1.469224813849069E-005
 -1.590000000000000E-002    1.566404373011283E-005
 -1.580000000000000E-002    1.670298576043543E-005
 -1.570000000000000E-002    1.781287924189176E-005
 -1.560000000000000E-002    1.899734711555103E-005
 -1.550000000000000E-002    2.025985536518862E-005
 -1.540000000000000E-002    2.160376515795058E-005
 -1.530000000000000E-002    2.303240514709779E-005
 -1.520000000000000E-002    2.454915343230220E-005
 -1.510000000000000E-002    2.615753426012984E-005
 -1.500000000000000E-002    2.786129445899804E-005
 -1.490000000000000E-002    2.966448390694841E-005
 -1.480000000000000E-002    3.157149463024818E-005
 -1.470000000000000E-002    3.358709732580248E-005
 -1.460000000000000E-002    3.571643486907798E-005
 -1.450000000000000E-002    3.796499448435647E-005
 -1.440000000000000E-002    4.033855825410633E-005
 -1.430000000000000E-002    4.284314687698563E-005
 -1.420000000000000E-002    4.548494423751323E-005
 -1.410000000000000E-002    4.827024159017228E-005
 -1.400000000000000E-002    5.120538748771082E-005
 -1.390000000000000E-002    5.429676893550823E-005
 -1.380000000000000E-002    5.755081841215385E-005
 -1.370000000000000E-002    6.097406441908536E-005
 -1.360000000000000E-002    6.457321804191362E-005
 -1.350000000000000E-002    6.835527953940550E-005
 -1.340000000000000E-002    7.232767303587173E-005
 -1.330000000000000E-002    7.649841587254317E-005
 -1.320000000000000E-002    8.087626034136995E-005
 -1.310000000000000E-002    8.547083887697665E-005
 -1.300000000000000E-002    9.029280469309912E-005
 -1.290000000000000E-002    9.535390928750264E-005
 -1.280000000000000E-002    1.006670538419152E-004
 -1.270000000000000E-002    1.062462970253541E-004
 -1.260000000000000E-002    1.121068401741643E-004
 -1.250000000000000E-002    1.182649602482183E-004
 -1.240000000000000E-002    1.247378933067917E-004
 -1.230000000000000E-002    1.315437671685380E-004
 -1.220000000000000E-002    1.387014670169670E-004
 -1.210000000000000E-002    1.462305419128865E-004
 -1.200000000000000E-002    1.541511731914978E-004
 -1.190000000000000E-002    1.624840904668890E-004
 -1.180000000000000E-002    1.712506030334326E-004
 -1.170000000000000E-002    1.804726430101216E-004
 -1.160000000000000E-002    1.901728585070670E-004
 -1.150000000000000E-002    2.003747033002262E-004
 -1.140000000000000E-002    2.111026030926146E-004
 -1.130000000000000E-002    2.223820679106804E-004
 -1.120000000000000E-002    2.342398225370002E-004
 -1.110000000000000E-002    2.467039280013293E-004
 -1.100000000000000E-002    2.598039383182587E-004
 -1.090000000000000E-002    2.735707925959179E-004
 -1.080000000000000E-002    2.880369662752166E-004
 -1.070000000000000E-002    3.032364307394281E-004
 -1.060000000000000E-002    3.192045470081489E-004
 -1.050000000000000E-002    3.359779751582907E-004
 -1.040000000000000E-002    3.535946356628164E-004
 -1.030000000000000E-002    3.720936408443153E-004
 -1.020000000000000E-002    3.915151436241690E-004
 -1.010000000000000E-002    4.119003273934970E-004
 -1.000000000000000E-002    4.332913758546105E-004
 -9.899999999999999E-003    4.557315450023441E-004
 -9.800000000000000E-003    4.792651769668819E-004
 -9.699999999999999E-003    5.039377333288410E-004
 -9.599999999999999E-003    5.297959672384042E-004
 -9.500000000000000E-003    5.568880345201302E-004
 -9.399999999999999E-003    5.852636454296011E-004
 -9.299999999999999E-003    6.149741689625301E-004
 -9.200000000000000E-003    6.460727316728505E-004
 -9.099999999999999E-003    6.786143834818719E-004
 -8.999999999999999E-003    7.126561001696972E-004
 -8.900000000000000E-003    7.482569340218274E-004
 -8.799999999999999E-003    7.854778407193239E-004
 -8.699999999999999E-003    8.243818434265085E-004
 -8.600000000000000E-003    8.650340293691593E-004
 -8.499999999999999E-003    9.075014176855279E-004
 -8.399999999999999E-003    9.518529515896273E-004
 -8.300000000000000E-003    9.981594727821966E-004
 -8.199999999999999E-003    1.046493997276205E-003
 -8.100000000000000E-003    1.096931219710050E-003
 -8.000000000000000E-003    1.149547846806789E-003
 -7.899999999999999E-003    1.204422742706248E-003
 -7.800000000000000E-003    1.261636742438763E-003
 -7.699999999999999E-003    1.321272915566536E-003
 -7.599999999999999E-003    1.383416673386898E-003
 -7.499999999999999E-003    1.448155792205593E-003
 -7.399999999999999E-003    1.515580748189266E-003
 -7.299999999999999E-003    1.585784591948794E-003
 -7.199999999999999E-003    1.658863514531685E-003
 -7.100000000000000E-003    1.734916419008765E-003
 -6.999999999999999E-003    1.814045985727407E-003
 -6.899999999999999E-003    1.896357979696382E-003
 -6.800000000000000E-003    1.981961810508855E-003
 -6.699999999999999E-003    2.070970756026585E-003
 -6.599999999999999E-003    2.163502087856603E-003
 -6.499999999999999E-003    2.259677132781501E-003
 -6.399999999999999E-003    2.359621399774600E-003
 -6.299999999999999E-003    2.463464794046576E-003
 -6.199999999999999E-003    2.571341553275092E-003
 -6.100000000000000E-003    2.683390344747341E-003
 -5.999999999999999E-003    2.799754073170518E-003
 -5.899999999999999E-003    2.920580404057653E-003
 -5.800000000000000E-003    3.046021162406235E-003
 -5.699999999999999E-003    3.176232722382765E-003
 -5.599999999999999E-003    3.311375642074809E-003
 -5.499999999999999E-003    3.451615244805603E-003
 -5.399999999999999E-003    3.597121032044201E-003
 -5.299999999999999E-003    3.748067328683873E-003
 -5.199999999999999E-003    3.904632680629486E-003
 -5.099999999999999E-003    4.067000987434190E-003
 -4.999999999999999E-003    4.235361178000574E-003
 -4.899999999999999E-003    4.409906573108012E-003
 -4.799999999999999E-003    4.590837168963507E-003
 -4.699999999999999E-003    4.778357067295113E-003
 -4.599999999999999E-003    4.972677252200870E-003
 -4.499999999999999E-003    5.174013130719669E-003
 -4.399999999999999E-003    5.382586709723954E-003
 -4.299999999999999E-003    5.598624585421015E-003
 -4.199999999999999E-003    5.822359104996335E-003
 -4.099999999999999E-003    6.054027782638653E-003
 -3.999999999999999E-003    6.293872502821844E-003
 -3.899999999999999E-003    6.542139929661758E-003
 -3.799999999999999E-003    6.799081474233999E-003
 -3.699999999999999E-003    7.064952342063148E-003
 -3.599999999999999E-003    7.340012360724064E-003
 -3.499999999999999E-003    7.624525338617833E-003
 -3.399999999999999E-003    7.918758742466798E-003
 -3.299999999999999E-003    8.222985067479429E-003
 -3.199999999999999E-003    8.537481549757571E-003
 -3.099999999999999E-003    8.862530442733515E-003
 -2.999999999999999E-003    9.198419074622061E-003
 -2.899999999999999E-003    9.545439938707290E-003
 -2.799999999999999E-003    9.903891962676220E-003
 -2.699999999999999E-003    1.027407899129325E-002
 -2.599999999999999E-003    1.065631059023829E-002
 -2.499999999999999E-003    1.105090257770206E-002
 -2.399999999999999E-003    1.145817558428595E-002
 -2.299999999999999E-003    1.187845535473909E-002
 -2.199999999999999E-003    1.231207210687180E-002
 -2.099999999999999E-003    1.275935989843640E-002
 -1.999999999999999E-003    1.322065706049754E-002
 -1.899999999999999E-003    1.369630461276578E-002
 -1.799999999999999E-003    1.418664672667637E-002
 -1.699999999999999E-003    1.469203040631968E-002
 -1.599999999999999E-003    1.521280667577415E-002
 -1.499999999999999E-003    1.574932616859436E-002
 -1.399999999999999E-003    1.630194758604644E-002
 -1.299999999999999E-003    1.687102892918559E-002
 -1.199999999999999E-003    1.745693294022072E-002
 -1.099999999999999E-003    1.806002491607818E-002
 -9.999999999999989E-004    1.868067680312223E-002
 -8.999999999999990E-004    1.931926340477854E-002
 -7.999999999999990E-004    1.997616230133872E-002
 -6.999999999999989E-004    2.065175411450162E-002
 -5.999999999999990E-004    2.134642365695314E-002
 -4.999999999999989E-004    2.206055820811461E-002
 -3.999999999999989E-004    2.279454578390037E-002
 -2.999999999999989E-004    2.354877606530574E-002
 -1.999999999999989E-004    2.432364214978880E-002
 -9.999999999999892E-005    2.511953103744133E-002
  1.084202172485504E-018    2.593683496570195E-002
  1.000000000000011E-004    2.677594200748421E-002
  2.000000000000011E-004    2.763723826426855E-002
  3.000000000000011E-004    2.852111292890374E-002
  4.000000000000011E-004    2.942794992527689E-002
  5.000000000000011E-004    3.035813309344488E-002
  6.000000000000011E-004    3.131204561686069E-002
  7.000000000000011E-004    3.229006841339210E-002
  8.000000000000011E-004    3.329258336202000E-002
  9.000000000000012E-004    3.431996719373818E-002
  1.000000000000001E-003    3.537260295948572E-002
  1.100000000000001E-003    3.645086112666642E-002
  1.200000000000001E-003    3.755511588740794E-002
  1.300000000000001E-003    3.868573882131035E-002
  1.400000000000001E-003    3.984308820224702E-002
  1.500000000000001E-003    4.102752294322713E-002
  1.600000000000001E-003    4.223939316884533E-002
  1.700000000000001E-003    4.347904271099128E-002
  1.800000000000001E-003    4.474680382839855E-002
  1.900000000000001E-003    4.604299726262250E-002
  2.000000000000001E-003    4.736793577143179E-002
  2.100000000000001E-003    4.872191796139202E-002
  2.200000000000001E-003    5.010523617499191E-002
  2.300000000000001E-003    5.151816805517869E-002
  2.400000000000001E-003    5.296097379773310E-002
  2.500000000000001E-003    5.443390846409653E-002
  2.600000000000001E-003    5.593720580407437E-002
  2.700000000000001E-003    5.747109359284985E-002
  2.800000000000001E-003    5.903577800024258E-002
  2.900000000000001E-003    6.063145314943297E-002
  3.000000000000001E-003    6.225829208176117E-002
  3.100000000000001E-003    6.391645229285230E-002
  3.200000000000001E-003    6.560606920549220E-002
  3.300000000000001E-003    6.732725537019786E-002
  3.400000000000001E-003    6.908010454645057E-002
  3.500000000000001E-003    7.086467807828244E-002
  3.600000000000001E-003    7.268102244279080E-002
  3.700000000000001E-003    7.452914486134592E-002
  3.800000000000001E-003    7.640903138802554E-002
  3.900000000000001E-003    7.832064537008122E-002
  4.000000000000001E-003    8.026391003821301E-002
  4.100000000000001E-003    8.223872282576698E-002
  4.200000000000001E-003    8.424495095642970E-002
  4.300000000000001E-003    8.628242822852981E-002
  4.400000000000001E-003    8.835095390845306E-002
  4.500000000000001E-003    9.045029827020766E-002
  4.600000000000002E-003    9.258019643518131E-002
  4.700000000000001E-003    9.474033648531591E-002
  4.800000000000001E-003    9.693037649581643E-002
  4.900000000000002E-003    9.914993080075121E-002
  5.000000000000001E-003    0.101398574695894     
  5.100000000000001E-003    0.103675833328375     
  5.200000000000001E-003    0.105981195724640     
  5.300000000000002E-003    0.108314090648284     
  5.400000000000001E-003    0.110673900845933     
  5.500000000000001E-003    0.113059969394395     
  5.600000000000002E-003    0.115471576854906     
  5.700000000000001E-003    0.117907948821582     
  5.800000000000001E-003    0.120368264405334     
  5.900000000000002E-003    0.122851644691438     
  6.000000000000001E-003    0.125357148814633     
  6.100000000000001E-003    0.127883778426023     
  6.200000000000002E-003    0.130430482069659     
  6.300000000000002E-003    0.132996148256931     
  6.400000000000001E-003    0.135579589439685     
  6.500000000000001E-003    0.138179575932735     
  6.600000000000002E-003    0.140794787594083     
  6.700000000000001E-003    0.143423829308708     
  6.800000000000001E-003    0.146065259857950     
  6.900000000000002E-003    0.148717553686640     
  7.000000000000001E-003    0.151379111207981     
  7.100000000000001E-003    0.154048260731441     
  7.200000000000002E-003    0.156723238782722     
  7.300000000000002E-003    0.159402209207935     
  7.400000000000001E-003    0.162083268081961     
  7.500000000000001E-003    0.164764409431485     
  7.600000000000002E-003    0.167443556701137     
  7.700000000000001E-003    0.170118552162884     
  7.800000000000001E-003    0.172787149464382     
  7.900000000000001E-003    0.175447008344366     
  8.000000000000002E-003    0.178095701830860     
  8.100000000000001E-003    0.180730718154360     
  8.200000000000001E-003    0.183349454901838     
  8.300000000000002E-003    0.185949225608523     
  8.400000000000001E-003    0.188527242048724     
  8.500000000000002E-003    0.191080613061433     
  8.600000000000002E-003    0.193606351540467     
  8.700000000000001E-003    0.196101378985722     
  8.800000000000002E-003    0.198562521453310     
  8.900000000000002E-003    0.200986489371959     
  9.000000000000001E-003    0.203369908151529     
  9.100000000000002E-003    0.205709289875822     
  9.200000000000002E-003    0.208001037085462     
  9.300000000000001E-003    0.210241475231537     
  9.400000000000002E-003    0.212426813247250     
  9.500000000000001E-003    0.214553158867104     
  9.600000000000001E-003    0.216616507461296     
  9.700000000000002E-003    0.218612778253538     
  9.800000000000001E-003    0.220537760923992     
  9.900000000000001E-003    0.222387145664895     
  1.000000000000000E-002    0.224156532080407     
  1.010000000000000E-002    0.225841405629374     
  1.020000000000000E-002    0.227437142077712     
  1.030000000000000E-002    0.228939027512144     
  1.040000000000000E-002    0.230342244160388     
  1.050000000000000E-002    0.231641855549605     
  1.060000000000000E-002    0.232832844104778     
  1.070000000000000E-002    0.233910087582598     
  1.080000000000000E-002    0.234868365074524     
  1.090000000000000E-002    0.235702351730011     
  1.100000000000000E-002    0.236406639287584     
  1.110000000000000E-002    0.236975710678437     
  1.120000000000000E-002    0.237403971571540     
  1.130000000000000E-002    0.237685745449176     
  1.140000000000000E-002    0.237815247339093     
  1.150000000000000E-002    0.237786654494180     
  1.160000000000000E-002    0.237594018821015     
  1.170000000000000E-002    0.237231338247795     
  1.180000000000000E-002    0.236692532744339     
  1.190000000000000E-002    0.235971456434273     
  1.200000000000000E-002    0.235061876348600     
  1.210000000000000E-002    0.233957520539543     
  1.220000000000000E-002    0.232652054442841     
  1.230000000000000E-002    0.231139067362943     
  1.240000000000000E-002    0.229412117726808     
  1.250000000000000E-002    0.227464693706474     
  1.260000000000000E-002    0.225290272179149     
  1.270000000000000E-002    0.222882271233970     
  1.280000000000000E-002    0.220234097071227     
  1.290000000000000E-002    0.217339118869596     
  1.300000000000000E-002    0.214190688205461     
  1.310000000000000E-002    0.210782137733833     
  1.320000000000000E-002    0.207106825631026     
  1.330000000000000E-002    0.203158077140639     
  1.340000000000000E-002    0.198929240525716     
  1.350000000000000E-002    0.194413686340371     
  1.360000000000000E-002    0.189604790314923     
  1.370000000000000E-002    0.184495950421456     
  1.380000000000000E-002    0.179080637638236     
  1.390000000000000E-002    0.173352325059745     
  1.400000000000000E-002    0.167304582185834     
  1.410000000000000E-002    0.160931005535596     
  1.420000000000000E-002    0.154225268448763     
  1.430000000000000E-002    0.147181116111953     
  1.440000000000000E-002    0.139792413049089     
  1.450000000000000E-002    0.132053103937158     
  1.460000000000000E-002    0.123957235017963     
  1.470000000000000E-002    0.115498990244007     
  1.480000000000000E-002    0.106672674849820     
  1.490000000000000E-002    9.747272353072725E-002
  1.500000000000000E-002    8.789374044107028E-002
  1.510000000000000E-002    7.793048118910086E-002
  1.520000000000000E-002    6.757787158123013E-002
  1.530000000000000E-002    5.683101943852953E-002
  1.540000000000000E-002    4.568522832413929E-002
  1.550000000000000E-002    3.413600578246061E-002
  1.560000000000000E-002    2.217906975357962E-002
  1.570000000000000E-002    9.810365850489538E-003
  1.580000000000000E-002   -2.973914267832044E-003
  1.590000000000000E-002   -1.617733650292907E-002
  1.600000000000000E-002   -2.980320310450111E-002
  1.610000000000000E-002   -4.385453960561821E-002
  1.620000000000000E-002   -5.833409601909439E-002
  1.630000000000000E-002   -7.324431430615425E-002
  1.640000000000000E-002   -8.858731482009741E-002
  1.650000000000000E-002   -0.104364919631372     
  1.660000000000000E-002   -0.120578596709932     
  1.670000000000000E-002   -0.137229482221476     
  1.680000000000000E-002   -0.154318348051791     
  1.690000000000000E-002   -0.171845604463585     
  1.700000000000000E-002   -0.189811239840562     
  1.710000000000000E-002   -0.208214916746433     
  1.720000000000000E-002   -0.227055853138474     
  1.730000000000000E-002   -0.246332841145057     
  1.740000000000000E-002   -0.266044262930346     
  1.750000000000000E-002   -0.286188092076496     
  1.760000000000000E-002   -0.306761821563322     
  1.770000000000000E-002   -0.327762487039818     
  1.780000000000000E-002   -0.349186675561999     
  1.790000000000000E-002   -0.371030488938581     
  1.800000000000000E-002   -0.393289518624387     
  1.810000000000000E-002   -0.415958883440549     
  1.820000000000000E-002   -0.439033197851270     
  1.830000000000000E-002   -0.462506539468557     
  1.840000000000000E-002   -0.486372514313041     
  1.850000000000000E-002   -0.510624140758305     
  1.860000000000000E-002   -0.535253850888936     
  1.870000000000000E-002   -0.560253642603508     