 -4.000000000000000E-002    0.000000000000000E+000
 -3.990000000000000E-002    0.000000000000000E+000
 -3.980000000000000E-002    0.000000000000000E+000
 -3.970000000000000E-002    0.000000000000000E+000
 -3.960000000000000E-002    0.000000000000000E+000
 -3.950000000000000E-002    0.000000000000000E+000
 -3.940000000000000E-002    0.000000000000000E+000
 -3.930000000000000E-002    0.000000000000000E+000
 -3.920000000000000E-002    0.000000000000000E+000
 -3.910000000000000E-002    0.000000000000000E+000
 -3.900000000000000E-002    0.000000000000000E+000
 -3.890000000000000E-002    0.000000000000000E+000
 -3.880000000000000E-002    0.000000000000000E+000
 -3.870000000000000E-002    0.000000000000000E+000
 -3.860000000000000E-002    0.000000000000000E+000
 -3.850000000000000E-002    0.000000000000000E+000
 -3.840000000000000E-002    0.000000000000000E+000
 -3.830000000000000E-002    0.000000000000000E+000
 -3.820000000000000E-002    0.000000000000000E+000
 -3.810000000000000E-002    0.000000000000000E+000
 -3.800000000000000E-002    0.000000000000000E+000
 -3.790000000000000E-002    0.000000000000000E+000
 -3.780000000000000E-002    0.000000000000000E+000
 -3.770000000000000E-002    0.000000000000000E+000
 -3.760000000000000E-002    0.000000000000000E+000
 -3.750000000000000E-002    0.000000000000000E+000
 -3.740000000000000E-002    0.000000000000000E+000
 -3.730000000000000E-002    0.000000000000000E+000
 -3.720000000000000E-002    0.000000000000000E+000
 -3.710000000000000E-002    0.000000000000000E+000
 -3.700000000000000E-002    0.000000000000000E+000
 -3.690000000000000E-002    0.000000000000000E+000
 -3.680000000000000E-002    0.000000000000000E+000
 -3.670000000000000E-002    0.000000000000000E+000
 -3.660000000000000E-002    0.000000000000000E+000
 -3.650000000000000E-002    0.000000000000000E+000
 -3.640000000000000E-002    0.000000000000000E+000
 -3.630000000000000E-002    0.000000000000000E+000
 -3.620000000000000E-002    0.000000000000000E+000
 -3.610000000000000E-002    0.000000000000000E+000
 -3.600000000000000E-002    0.000000000000000E+000
 -3.590000000000000E-002    0.000000000000000E+000
 -3.580000000000000E-002    0.000000000000000E+000
 -3.570000000000000E-002    0.000000000000000E+000
 -3.560000000000000E-002    0.000000000000000E+000
 -3.550000000000000E-002    0.000000000000000E+000
 -3.540000000000000E-002    0.000000000000000E+000
 -3.530000000000000E-002    0.000000000000000E+000
 -3.520000000000000E-002    0.000000000000000E+000
 -3.510000000000000E-002    0.000000000000000E+000
 -3.500000000000000E-002    0.000000000000000E+000
 -3.490000000000000E-002    0.000000000000000E+000
 -3.480000000000000E-002    0.000000000000000E+000
 -3.470000000000000E-002    0.000000000000000E+000
 -3.460000000000000E-002    0.000000000000000E+000
 -3.450000000000000E-002    0.000000000000000E+000
 -3.440000000000000E-002    0.000000000000000E+000
 -3.430000000000000E-002    0.000000000000000E+000
 -3.420000000000000E-002    0.000000000000000E+000
 -3.410000000000000E-002    0.000000000000000E+000
 -3.400000000000000E-002    0.000000000000000E+000
 -3.390000000000000E-002    0.000000000000000E+000
 -3.380000000000000E-002    0.000000000000000E+000
 -3.370000000000000E-002    0.000000000000000E+000
 -3.360000000000000E-002    0.000000000000000E+000
 -3.350000000000000E-002    0.000000000000000E+000
 -3.340000000000000E-002    0.000000000000000E+000
 -3.330000000000000E-002    0.000000000000000E+000
 -3.320000000000000E-002    0.000000000000000E+000
 -3.310000000000000E-002    0.000000000000000E+000
 -3.300000000000000E-002    0.000000000000000E+000
 -3.290000000000000E-002    0.000000000000000E+000
 -3.280000000000000E-002    0.000000000000000E+000
 -3.270000000000000E-002    0.000000000000000E+000
 -3.260000000000000E-002    0.000000000000000E+000
 -3.250000000000000E-002    0.000000000000000E+000
 -3.240000000000000E-002    0.000000000000000E+000
 -3.230000000000000E-002    0.000000000000000E+000
 -3.220000000000000E-002    0.000000000000000E+000
 -3.210000000000000E-002    0.000000000000000E+000
 -3.200000000000000E-002    0.000000000000000E+000
 -3.190000000000000E-002    0.000000000000000E+000
 -3.180000000000000E-002    0.000000000000000E+000
 -3.170000000000000E-002    0.000000000000000E+000
 -3.160000000000000E-002    0.000000000000000E+000
 -3.150000000000000E-002    0.000000000000000E+000
 -3.140000000000000E-002    0.000000000000000E+000
 -3.130000000000000E-002    0.000000000000000E+000
 -3.120000000000000E-002    0.000000000000000E+000
 -3.110000000000000E-002    0.000000000000000E+000
 -3.100000000000000E-002    0.000000000000000E+000
 -3.090000000000000E-002    0.000000000000000E+000
 -3.080000000000000E-002    0.000000000000000E+000
 -3.070000000000000E-002    0.000000000000000E+000
 -3.060000000000000E-002    0.000000000000000E+000
 -3.050000000000000E-002    0.000000000000000E+000
 -3.040000000000000E-002    0.000000000000000E+000
 -3.030000000000000E-002    0.000000000000000E+000
 -3.020000000000000E-002    0.000000000000000E+000
 -3.010000000000000E-002    0.000000000000000E+000
 -3.000000000000000E-002    0.000000000000000E+000
 -2.990000000000000E-002    0.000000000000000E+000
 -2.980000000000000E-002    0.000000000000000E+000
 -2.970000000000000E-002    0.000000000000000E+000
 -2.960000000000000E-002    0.000000000000000E+000
 -2.950000000000000E-002    0.000000000000000E+000
 -2.940000000000000E-002    0.000000000000000E+000
 -2.930000000000000E-002    0.000000000000000E+000
 -2.920000000000000E-002    8.700000408781844E-049
 -2.910000000000000E-002    2.030083713325032E-047
 -2.900000000000000E-002    3.269167397501287E-047
 -2.890000000000000E-002    4.421251077589724E-047
 -2.880000000000000E-002    5.573334757678161E-047
 -2.870000000000000E-002    7.255418454651919E-047
 -2.860000000000000E-002    7.875582826087307E-047
 -2.850000000000000E-002    4.741488795412441E-047
 -2.840000000000000E-002   -7.137362997459292E-047
 -2.830000000000000E-002   -2.467822084353092E-046
 -2.820000000000000E-002   -5.052069718962158E-046
 -2.810000000000000E-002   -7.822313894989877E-046
 -2.800000000000000E-002   -1.163115194822036E-045
 -2.790000000000000E-002   -1.596533239984545E-045
 -2.780000000000000E-002   -2.031134559148333E-045
 -2.770000000000000E-002   -2.190228824812272E-045
 -2.760000000000000E-002   -2.769490959529364E-045
 -2.750000000000000E-002   -3.952338159481890E-045
 -2.740000000000000E-002   -4.405092194032633E-045
 -2.730000000000000E-002   -4.700142940196069E-045
 -2.720000000000000E-002   -4.588824227136036E-045
 -2.710000000000000E-002   -2.701597683526377E-045
 -2.700000000000000E-002    9.928906826033191E-046
 -2.690000000000000E-002    8.738501034171880E-045
 -2.680000000000000E-002    2.039655530238426E-044
 -2.670000000000000E-002    3.604881076010797E-044
 -2.660000000000000E-002    5.635260568229999E-044
 -2.650000000000000E-002    8.176911053377386E-044
 -2.640000000000000E-002    1.095789841886851E-043
 -2.630000000000000E-002    1.372461914301689E-043
 -2.620000000000000E-002    1.583168228906426E-043
 -2.610000000000000E-002    1.648806455222820E-043
 -2.600000000000000E-002    1.432340986327913E-043
 -2.590000000000000E-002    7.831737533211430E-044
 -2.580000000000000E-002   -5.088941832965048E-044
 -2.570000000000000E-002   -2.698064646767325E-043
 -2.560000000000000E-002   -6.028690191547668E-043
 -2.550000000000000E-002   -1.073882235149815E-042
 -2.540000000000000E-002   -1.696614565120297E-042
 -2.530000000000000E-002   -2.462054112366443E-042
 -2.520000000000000E-002   -3.323942257837417E-042
 -2.510000000000000E-002   -4.176810289993778E-042
 -2.500000000000000E-002   -4.831056237547921E-042
 -2.490000000000000E-002   -4.987597524363754E-042
 -2.480000000000000E-002   -4.218264140796169E-042
 -2.470000000000000E-002   -1.959307890438170E-042
 -2.460000000000000E-002    2.460506701296174E-042
 -2.450000000000000E-002    9.742992786093006E-042
 -2.440000000000000E-002    2.048284336591491E-041
 -2.430000000000000E-002    3.493482043627678E-041
 -2.420000000000000E-002    5.269253672527657E-041
 -2.410000000000000E-002    7.228267934028039E-041
 -2.400000000000000E-002    9.070787753738606E-041
 -2.390000000000000E-002    1.030372303274734E-040
 -2.380000000000000E-002    1.021486213371970E-040
 -2.370000000000000E-002    7.883346819594593E-041
 -2.360000000000000E-002    2.247537095053180E-041
 -2.350000000000000E-002   -7.745541840809581E-041
 -2.340000000000000E-002   -2.288896911794266E-040
 -2.330000000000000E-002   -4.335356748350801E-040
 -2.320000000000000E-002   -6.822921728284900E-040
 -2.310000000000000E-002   -9.501477197083110E-040
 -2.300000000000000E-002   -1.191478632312847E-039
 -2.290000000000000E-002   -1.337125541728044E-039
 -2.280000000000000E-002   -1.295112292984611E-039
 -2.270000000000000E-002   -9.571755812242366E-040
 -2.260000000000000E-002   -2.132248909335882E-040
 -2.250000000000000E-002    1.024741679098774E-039
 -2.240000000000000E-002    2.789057810745262E-039
 -2.230000000000000E-002    5.015164410085982E-039
 -2.220000000000000E-002    7.497830336413082E-039
 -2.210000000000000E-002    9.853605016420559E-039
 -2.200000000000000E-002    1.150206267615424E-038
 -2.190000000000000E-002    1.168144104688711E-038
 -2.180000000000000E-002    9.515258431157045E-039
 -2.170000000000000E-002    4.144162215932327E-039
 -2.160000000000000E-002   -5.069943937429447E-039
 -2.150000000000000E-002   -1.827332262077735E-038
 -2.140000000000000E-002   -3.480827181021340E-038
 -2.130000000000000E-002   -5.290819672721042E-038
 -2.120000000000000E-002   -6.947434755846776E-038
 -2.110000000000000E-002   -8.003145859336598E-038
 -2.100000000000000E-002   -7.897182921593743E-038
 -2.090000000000000E-002   -6.019117761166990E-038
 -2.080000000000000E-002   -1.818574107627909E-038
 -2.070000000000000E-002    5.038770711960344E-038
 -2.060000000000000E-002    1.447927710237286E-037
 -2.050000000000000E-002    2.581752037154961E-037
 -2.040000000000000E-002    3.758004188103737E-037
 -2.030000000000000E-002    4.741063975641671E-037
 -2.020000000000000E-002    5.212102264824057E-037
 -2.010000000000000E-002    4.795111662866758E-037
 -2.000000000000000E-002    3.108967736132375E-037
 -1.990000000000000E-002   -1.525636643820219E-038
 -1.980000000000000E-002   -5.116214667181708E-037
 -1.970000000000000E-002   -1.161025443677965E-036
 -1.960000000000000E-002   -1.904973557407296E-036
 -1.950000000000000E-002   -2.635258926278071E-036
 -1.940000000000000E-002   -3.191947722532296E-036
 -1.930000000000000E-002   -3.371247095049775E-036
 -1.920000000000000E-002   -2.946322758058376E-036
 -1.910000000000000E-002   -1.702839264530353E-036
 -1.900000000000000E-002    5.112628969412969E-037
 -1.890000000000000E-002    3.725458798565356E-036
 -1.880000000000000E-002    7.783305673891266E-036
 -1.870000000000000E-002    1.228764148611261E-035
 -1.860000000000000E-002    1.656919980024854E-035
 -1.850000000000000E-002    1.969525763009883E-035
 -1.840000000000000E-002    2.053401089758604E-035
 -1.830000000000000E-002    1.788588883171464E-035
 -1.820000000000000E-002    1.068435299936950E-035
 -1.810000000000000E-002   -1.744013615196169E-036
 -1.800000000000000E-002   -1.938602578766587E-035
 -1.790000000000000E-002   -4.125803321520654E-035
 -1.780000000000000E-002   -6.518961433564185E-035
 -1.770000000000000E-002   -8.774247755361368E-035
 -1.760000000000000E-002   -1.043320207729826E-034
 -1.750000000000000E-002   -1.096060988540578E-034
 -1.740000000000000E-002   -9.810710263195953E-035
 -1.730000000000000E-002   -6.519990227243528E-035
 -1.720000000000000E-002   -8.192637844530492E-036
 -1.710000000000000E-002    7.248263386283703E-035
 -1.700000000000000E-002    1.722191243224862E-034
 -1.690000000000000E-002    2.815430730251732E-034
 -1.680000000000000E-002    3.860170773645918E-034
 -1.670000000000000E-002    4.669453250739048E-034
 -1.660000000000000E-002    5.030094269224573E-034
 -1.650000000000000E-002    4.728381409140398E-034
 -1.640000000000000E-002    3.583607342238091E-034
 -1.630000000000000E-002    1.486168192939598E-034
 -1.620000000000000E-002   -1.564545042862691E-034
 -1.610000000000000E-002   -5.428345489317540E-034
 -1.600000000000000E-002   -9.804725680486056E-034
 -1.590000000000000E-002   -1.423102978892570E-033
 -1.580000000000000E-002   -1.810200812313121E-033
 -1.570000000000000E-002   -2.071185913373416E-033
 -1.560000000000000E-002   -2.131673099639565E-033
 -1.550000000000000E-002   -1.921281516998973E-033
 -1.540000000000000E-002   -1.382326606469980E-033
 -1.530000000000000E-002   -4.786597630426443E-034
 -1.520000000000000E-002    7.959479835042480E-034
 -1.510000000000000E-002    2.410162763281315E-033
 -1.500000000000000E-002    4.288145614657341E-033
 -1.490000000000000E-002    6.302958322316315E-033
 -1.480000000000000E-002    8.269988942807010E-033
 -1.470000000000000E-002    9.940554967901063E-033
 -1.460000000000000E-002    1.099699003109268E-032
 -1.450000000000000E-002    1.105229411316586E-032
 -1.440000000000000E-002    9.659708212215784E-033
 -1.430000000000000E-002    6.339626002960195E-033
 -1.420000000000000E-002    6.327855441110681E-034
 -1.410000000000000E-002   -7.811932254597215E-033
 -1.400000000000000E-002   -1.910998105259559E-032
 -1.390000000000000E-002   -3.297588088413819E-032
 -1.380000000000000E-002   -4.853326894466506E-032
 -1.370000000000000E-002   -6.412813498676421E-032
 -1.360000000000000E-002   -7.718948849334718E-032
 -1.350000000000000E-002   -8.419720301315816E-032
 -1.340000000000000E-002   -8.082660306131207E-032
 -1.330000000000000E-002   -6.233826579829366E-032
 -1.320000000000000E-002   -2.426472439957820E-032
 -1.310000000000000E-002    3.659146852696507E-032
 -1.300000000000000E-002    1.208929049073122E-031
 -1.290000000000000E-002    2.253591628076293E-031
 -1.280000000000000E-002    3.414278919000292E-031
 -1.270000000000000E-002    4.542868804376712E-031
 -1.260000000000000E-002    5.426445954860093E-031
 -1.250000000000000E-002    5.796277335836676E-031
 -1.240000000000000E-002    5.351479534860052E-031
 -1.230000000000000E-002    3.799428952846221E-031
 -1.220000000000000E-002    9.126119776487674E-032
 -1.210000000000000E-002   -3.401657601478857E-031
 -1.200000000000000E-002   -9.026224253902234E-031
 -1.190000000000000E-002   -1.556542427736907E-030
 -1.180000000000000E-002   -2.229803165412264E-030
 -1.170000000000000E-002   -2.816915229059538E-030
 -1.160000000000000E-002   -3.183813494651663E-030
 -1.150000000000000E-002   -3.179595814491289E-030
 -1.140000000000000E-002   -2.655813277688061E-030
 -1.130000000000000E-002   -1.492799329769915E-030
 -1.120000000000000E-002    3.689391288247993E-031
 -1.110000000000000E-002    2.895842378221035E-030
 -1.100000000000000E-002    5.932072108821981E-030
 -1.090000000000000E-002    9.180254492299615E-030
 -1.080000000000000E-002    1.219902939603287E-029
 -1.070000000000000E-002    1.442368263148231E-029
 -1.060000000000000E-002    1.521438859924410E-029
 -1.050000000000000E-002    1.393341552327851E-029
 -1.040000000000000E-002    1.004826142706647E-029
 -1.030000000000000E-002    3.252381521870034E-030
 -1.020000000000000E-002   -6.410384569706294E-030
 -1.010000000000000E-002   -1.843659598750120E-029
 -1.000000000000000E-002   -3.179148701633457E-029
 -9.899999999999999E-003   -4.489776835626895E-029
 -9.800000000000000E-003   -5.570530142320657E-029
 -9.699999999999999E-003   -6.185516682323191E-029
 -9.599999999999999E-003   -6.094076407041357E-029
 -9.500000000000000E-003   -5.085423229143471E-029
 -9.399999999999999E-003   -3.019013891777034E-029
 -9.299999999999999E-003    1.338353765319398E-030
 -9.200000000000000E-003    4.252931318217907E-029
 -9.099999999999999E-003    9.043528144521634E-029
 -8.999999999999999E-003    1.402879381388271E-028
 -8.900000000000000E-003    1.856632201267850E-028
 -8.799999999999999E-003    2.189258452865824E-028
 -8.699999999999999E-003    2.319613538320816E-028
 -8.600000000000000E-003    2.171660937866856E-028
 -8.499999999999999E-003    1.686216832973292E-028
 -8.399999999999999E-003    8.333879398357570E-029
 -8.300000000000000E-003   -3.758055330432254E-029
 -8.199999999999999E-003   -1.880340453712458E-028
 -8.100000000000000E-003   -3.564410709885601E-028
 -8.000000000000000E-003   -5.258529945828633E-028
 -7.899999999999999E-003   -6.747680935812716E-028
 -7.800000000000000E-003   -7.787037365951781E-028
 -7.699999999999999E-003   -8.124979171143650E-028
 -7.599999999999999E-003   -7.532196694651989E-028
 -7.499999999999999E-003   -5.834787837692484E-028
 -7.399999999999999E-003   -2.948386999691657E-028
 -7.299999999999999E-003    1.090239657538695E-028
 -7.199999999999999E-003    6.098131497780429E-028
 -7.100000000000000E-003    1.173161695392413E-027
 -6.999999999999999E-003    1.748609363378993E-027
 -6.899999999999999E-003    2.271318669593998E-027
 -6.800000000000000E-003    2.665740595197885E-027
 -6.699999999999999E-003    2.851302794032227E-027
 -6.599999999999999E-003    2.750035060183464E-027
 -6.499999999999999E-003    2.295848478661320E-027
 -6.399999999999999E-003    1.444972710645268E-027
 -6.299999999999999E-003    1.868065160625215E-028
 -6.199999999999999E-003   -1.445812432645119E-027
 -6.100000000000000E-003   -3.368149577807489E-027
 -5.999999999999999E-003   -5.438380308911803E-027
 -5.899999999999999E-003   -7.457233445558691E-027
 -5.800000000000000E-003   -9.174051077678233E-027
 -5.699999999999999E-003   -1.030061681508831E-026
 -5.599999999999999E-003   -1.053368755277449E-026
 -5.499999999999999E-003   -9.586354874825114E-027
 -5.399999999999999E-003   -7.227334501892045E-027
 -5.299999999999999E-003   -3.325842472237220E-027
 -5.199999999999999E-003    2.101789665783813E-027
 -5.099999999999999E-003    8.849201262252421E-027
 -4.999999999999999E-003    1.648765418327370E-026
 -4.899999999999999E-003    2.435193703582476E-026
 -4.799999999999999E-003    3.155227819618624E-026
 -4.699999999999999E-003    3.701894182921026E-026
 -4.599999999999999E-003    3.958379094825217E-026
 -4.499999999999999E-003    3.809928216967977E-026
 -4.399999999999999E-003    3.159026211519906E-026
 -4.299999999999999E-003    1.942797579226774E-026
 -4.199999999999999E-003    1.509452876414973E-027
 -4.099999999999999E-003   -2.158034914709187E-026
 -3.999999999999999E-003   -4.845018386093285E-026
 -3.899999999999999E-003   -7.685600403328979E-026
 -3.799999999999999E-003   -1.037522014782380E-025
 -3.699999999999999E-003   -1.254600700856884E-025
 -3.599999999999999E-003   -1.379622518153438E-025
 -3.499999999999999E-003   -1.373170001990399E-025
 -3.399999999999999E-003   -1.201689075108172E-025
 -3.299999999999999E-003   -8.431349847700769E-026
 -3.199999999999999E-003   -2.925671043882603E-026
 -3.099999999999999E-003    4.330396286826818E-026
 -2.999999999999999E-003    1.291554168179759E-025
 -2.899999999999999E-003    2.214786915813924E-025
 -2.799999999999999E-003    3.110557540677924E-025
 -2.699999999999999E-003    3.868129878317467E-025
 -2.599999999999999E-003    4.367061771676267E-025
 -2.499999999999999E-003    4.489120240191302E-025
 -2.399999999999999E-003    4.132463112498297E-025
 -2.299999999999999E-003    3.226866462427214E-025
 -2.199999999999999E-003    1.748429589907859E-025
 -2.099999999999999E-003   -2.680134653707557E-026
 -1.999999999999999E-003   -2.720607115260705E-025
 -1.899999999999999E-003   -5.437969798979133E-025
 -1.799999999999999E-003   -8.183754332476332E-025
 -1.699999999999999E-003   -1.066899737844996E-024
 -1.599999999999999E-003   -1.257226520771001E-024
 -1.499999999999999E-003   -1.356680451779426E-024
 -1.399999999999999E-003   -1.335308955399859E-024
 -1.299999999999999E-003   -1.169444368535368E-024
 -1.199999999999999E-003   -8.452780203215804E-025
 -1.099999999999999E-003   -3.621150634365614E-025
 -9.999999999999989E-004    2.650351080241902E-025
 -8.999999999999990E-004    1.003869017371928E-024
 -7.999999999999990E-004    1.804497802368306E-024
 -6.999999999999989E-004    2.600689958054074E-024
 -5.999999999999990E-004    3.312806485365949E-024
 -4.999999999999989E-004    3.852482494133335E-024
 -3.999999999999989E-004    4.129007235349820E-024
 -2.999999999999989E-004    4.057202094820401E-024
 -1.999999999999989E-004    3.566477505142222E-024
 -9.999999999999892E-005    2.610568527291396E-024
  1.084202172485504E-018    1.177292684406313E-024
  1.000000000000011E-004   -7.025088444395252E-025
  2.000000000000011E-004   -2.947841567662787E-024
  3.000000000000011E-004   -5.423352818131557E-024
  4.000000000000011E-004   -7.939238150383224E-024
  5.000000000000011E-004   -1.025637589362520E-023
  6.000000000000011E-004   -1.209764353248666E-023
  7.000000000000011E-004   -1.316597822125729E-023
  8.000000000000011E-004   -1.316921964871092E-023
  9.000000000000012E-004   -1.185099352746793E-023
  1.000000000000001E-003   -9.026022957847731E-024
  1.100000000000001E-003   -4.617237406016966E-024
  1.200000000000001E-003    1.308906261601809E-024
  1.300000000000001E-003    8.513296472818497E-024
  1.400000000000001E-003    1.656615389034685E-023
  1.500000000000001E-003    2.484509042760085E-023
  1.600000000000001E-003    3.255363966763883E-023
  1.700000000000001E-003    3.876339814269841E-023
  1.800000000000001E-003    4.248095969601612E-023
  1.900000000000001E-003    4.273817170959339E-023
  2.000000000000001E-003    3.870125753843689E-023
  2.100000000000001E-003    2.979096899953829E-023
  2.200000000000001E-003    1.580300478578916E-023
  2.300000000000001E-003   -2.984747384920090E-024
  2.400000000000001E-003   -2.573284645241783E-023
  2.500000000000001E-003   -5.100369479484197E-023
  2.600000000000001E-003   -7.678083848979795E-023
  2.700000000000001E-003   -1.005539004380520E-022
  2.800000000000001E-003   -1.194734295771743E-022
  2.900000000000001E-003   -1.305734528927011E-022
  3.000000000000001E-003   -1.310516181089648E-022
  3.100000000000001E-003   -1.185888368386754E-022
  3.200000000000001E-003   -9.168292988381844E-023
  3.300000000000001E-003   -4.996472320750134E-023
  3.400000000000001E-003    5.538608716346079E-024
  3.500000000000001E-003    7.222905909125974E-023
  3.600000000000001E-003    1.458852983558102E-022
  3.700000000000001E-003    2.207591141522877E-022
  3.800000000000001E-003    2.898376026607221E-022
  3.900000000000001E-003    3.452751717833854E-022
  4.000000000000001E-003    3.789839484031402E-022
  4.100000000000001E-003    3.833548221024381E-022
  4.200000000000001E-003    3.520659554374252E-022
  4.300000000000001E-003    2.809196130516505E-022
  4.400000000000001E-003    1.686368402070901E-022
  4.500000000000001E-003    1.753229725986030E-023
  4.600000000000002E-003   -1.660122381668217E-022
  4.700000000000001E-003   -3.713530598722071E-022
  4.800000000000001E-003   -5.837359903406754E-022
  4.900000000000002E-003   -7.848444755830632E-022
  5.000000000000001E-003   -9.537708504618151E-022
  5.100000000000001E-003   -1.068406478372281E-021
  5.200000000000001E-003   -1.107211801108930E-021
  5.300000000000002E-003   -1.051284474548315E-021
  5.400000000000001E-003   -8.866051028668288E-022
  5.500000000000001E-003   -6.062977427067185E-022
  5.600000000000002E-003   -2.127054027218083E-022
  5.700000000000001E-003    2.809427112650235E-022
  5.800000000000001E-003    8.495119983706464E-022
  5.900000000000002E-003    1.455821362133881E-021
  6.000000000000001E-003    2.051583811197486E-021
  6.100000000000001E-003    2.579573656334579E-021
  6.200000000000002E-003    2.977085858874924E-021
  6.300000000000002E-003    3.180637734101983E-021
  6.400000000000001E-003    3.131740458207579E-021
  6.500000000000001E-003    2.783414051189839E-021
  6.600000000000002E-003    2.106985705675062E-021
  6.700000000000001E-003    1.098569621316721E-021
  6.800000000000001E-003   -2.154653306068522E-022
  6.900000000000002E-003   -1.774786118454417E-021
  7.000000000000001E-003   -3.483874918516844E-021
  7.100000000000001E-003   -5.213933145346585E-021
  7.200000000000002E-003   -6.808368357690807E-021
  7.300000000000002E-003   -8.092054644510973E-021
  7.400000000000001E-003   -8.884219145111330E-021
  7.500000000000001E-003   -9.014425854029388E-021
  7.600000000000002E-003   -8.340702884167317E-021
  7.700000000000001E-003   -6.768470055692070E-021
  7.800000000000001E-003   -4.268589963640601E-021
  7.900000000000001E-003   -8.926399396827325E-022
  8.000000000000002E-003    3.216601169793048E-021
  8.100000000000001E-003    7.821315762262828E-021
  8.200000000000001E-003    1.259305544034386E-020
  8.300000000000002E-003    1.712646190057510E-020
  8.400000000000001E-003    2.096265845480486E-020
  8.500000000000002E-003    2.362184506675252E-020
  8.600000000000002E-003    2.464363894642776E-020
  8.700000000000001E-003    2.363276923400446E-020
  8.800000000000002E-003    2.030684625754133E-020
  8.900000000000002E-003    1.454212163067421E-020
  9.000000000000001E-003    6.412790924412171E-021
  9.100000000000002E-003   -3.780860021995115E-021
  9.200000000000002E-003   -1.549985724792615E-020
  9.300000000000001E-003   -2.797319664461175E-020
  9.400000000000002E-003   -4.022635969809103E-020
  9.500000000000001E-003   -5.113278395550608E-020
  9.600000000000001E-003   -5.948748816166500E-020
  9.700000000000002E-003   -6.410009771749629E-020
  9.800000000000001E-003   -6.390225526427240E-020
  9.900000000000001E-003   -5.806243470081251E-020
  1.000000000000000E-002   -4.609943019191141E-020
  1.010000000000000E-002   -2.798439893961765E-020
  1.020000000000000E-002   -4.220796418667053E-021
  1.030000000000000E-002    2.410845232194411E-020
  1.040000000000000E-002    5.533600825838185E-020
  1.050000000000000E-002    8.725495433781337E-020
  1.060000000000000E-002    1.172178772904904E-019
  1.070000000000000E-002    1.422908057909533E-019
  1.080000000000000E-002    1.594580409844091E-019
  1.090000000000000E-002    1.658689530694722E-019
  1.100000000000000E-002    1.591123029694318E-019
  1.110000000000000E-002    1.374994976333901E-019
  1.120000000000000E-002    1.003335000126780E-019
  1.130000000000000E-002    4.813792443141814E-020
  1.140000000000000E-002   -1.718051407083096E-020
  1.150000000000000E-002   -9.226141930213767E-020
  1.160000000000000E-002   -1.723340112734082E-019
  1.170000000000000E-002   -2.513897077645086E-019
  1.180000000000000E-002   -3.224911234074823E-019
  1.190000000000000E-002   -3.782132275611908E-019
  1.200000000000000E-002   -4.112011830885095E-019
  1.210000000000000E-002   -4.148149611959971E-019
  1.220000000000000E-002   -3.838199566364128E-019
  1.230000000000000E-002   -3.150700802516022E-019
  1.240000000000000E-002   -2.081233814042029E-019
  1.250000000000000E-002   -6.572491483706176E-020
  1.260000000000000E-002    1.059064849948655E-019
  1.270000000000000E-002    2.970444600824730E-019
  1.280000000000000E-002    4.947180017985214E-019
  1.290000000000000E-002    6.832953922598316E-019
  1.300000000000000E-002    8.453900005090484E-019
  1.310000000000000E-002    9.630596350933601E-019
  1.320000000000000E-002    1.019242956673219E-018
  1.330000000000000E-002    9.993454277712121E-019
  1.340000000000000E-002    8.928618832200604E-019
  1.350000000000000E-002    6.949036488054229E-019
  1.360000000000000E-002    4.074834100533123E-019
  1.370000000000000E-002    4.041436436821430E-020
  1.380000000000000E-002   -3.883120194121675E-019
  1.390000000000000E-002   -8.527777880012602E-019
  1.400000000000000E-002   -1.320093252610587E-018
  1.410000000000000E-002   -1.752076578087695E-018
  1.420000000000000E-002   -2.107624728715441E-018
  1.430000000000000E-002   -2.345678887454832E-018
  1.440000000000000E-002   -2.428623681034431E-018
  1.450000000000000E-002   -2.325901139256033E-018
  1.460000000000000E-002   -2.017574693988287E-018
  1.470000000000000E-002   -1.497538045895939E-018
  1.480000000000000E-002   -7.760597237990227E-019
  1.490000000000000E-002    1.186417699822833E-019
  1.500000000000000E-002    1.140058657227880E-018
  1.510000000000000E-002    2.224493501579900E-018
  1.520000000000000E-002    3.293712024829969E-018
  1.530000000000000E-002    4.259155694712525E-018
  1.540000000000000E-002    5.027592992469644E-018
  1.550000000000000E-002    5.507959869803878E-018
  1.560000000000000E-002    5.619003365433443E-018
  1.570000000000000E-002    5.297231572278839E-018
  1.580000000000000E-002    4.504570178204091E-018
  1.590000000000000E-002    3.235078959087501E-018
  1.600000000000000E-002    1.520044456414715E-018
  1.610000000000000E-002   -5.691694555802490E-019
  1.620000000000000E-002   -2.921076203514041E-018
  1.630000000000000E-002   -5.387210506793475E-018
  1.640000000000000E-002   -7.788664349524373E-018
  1.650000000000000E-002   -9.925971872811347E-018
  1.660000000000000E-002   -1.159202242073996E-017
  1.670000000000000E-002   -1.258739968299101E-017
  1.680000000000000E-002   -1.273725700305287E-017
  1.690000000000000E-002   -1.190861715445833E-017
  1.700000000000000E-002   -1.002676413360582E-017
  1.710000000000000E-002   -7.089302953195496E-018
  1.720000000000000E-002   -3.176467400180876E-018
  1.730000000000000E-002    1.543690319553720E-018
  1.740000000000000E-002    6.816305047583719E-018
  1.750000000000000E-002    1.230769158517566E-017
  1.760000000000000E-002    1.762062817560397E-017
  1.770000000000000E-002    2.231671740760523E-017
  1.780000000000000E-002    2.594501782734089E-017
  1.790000000000000E-002    2.807551724116801E-017
  1.800000000000000E-002    2.833549703567285E-017
  1.810000000000000E-002    2.644628696045515E-017
  1.820000000000000E-002    2.225762551339115E-017
  1.830000000000000E-002    1.577654794018491E-017
  1.840000000000000E-002    7.187956378330662E-018
  1.850000000000000E-002   -3.135922983747413E-018
  1.860000000000000E-002   -1.463932165558005E-017
  1.870000000000000E-002   -2.660135610222112E-017