 -4.000000000000000E-002    0.000000000000000E+000
 -3.990000000000000E-002    0.000000000000000E+000
 -3.980000000000000E-002    0.000000000000000E+000
 -3.970000000000000E-002    0.000000000000000E+000
 -3.960000000000000E-002    0.000000000000000E+000
 -3.950000000000000E-002    0.000000000000000E+000
 -3.940000000000000E-002    0.000000000000000E+000
 -3.930000000000000E-002    0.000000000000000E+000
 -3.920000000000000E-002    0.000000000000000E+000
 -3.910000000000000E-002    0.000000000000000E+000
 -3.900000000000000E-002    0.000000000000000E+000
 -3.890000000000000E-002    3.105549894926516E-037
 -3.880000000000000E-002    6.761637405435182E-036
 -3.870000000000000E-002    7.631508556676798E-035
 -3.860000000000000E-002    5.940539290471420E-034
 -3.850000000000000E-002    3.580690505346044E-033
 -3.840000000000000E-002    1.779143407486213E-032
 -3.830000000000000E-002    7.576353609358528E-032
 -3.820000000000000E-002    2.838807597980785E-031
 -3.810000000000000E-002    9.536363089303290E-031
 -3.800000000000000E-002    2.912192968582025E-030
 -3.790000000000000E-002    8.169538283305615E-030
 -3.780000000000000E-002    2.122210221712467E-029
 -3.770000000000000E-002    5.136090588745148E-029
 -3.760000000000000E-002    1.163271856065333E-028
 -3.750000000000000E-002    2.473249690813547E-028
 -3.740000000000000E-002    4.944417071572654E-028
 -3.730000000000000E-002    9.295183737292577E-028
 -3.720000000000000E-002    1.640007453320987E-027
 -3.710000000000000E-002    2.702122056850957E-027
 -3.700000000000000E-002    4.114983834354294E-027
 -3.690000000000000E-002    5.671054121640309E-027
 -3.680000000000000E-002    6.735262789561157E-027
 -3.670000000000000E-002    5.911682806882625E-027
 -3.660000000000000E-002    6.005446562884814E-028
 -3.650000000000000E-002   -1.350036191048666E-026
 -3.640000000000000E-002   -4.280846661677391E-026
 -3.630000000000000E-002   -9.591471580150703E-026
 -3.620000000000000E-002   -1.828599619211607E-025
 -3.610000000000000E-002   -3.130394026649849E-025
 -3.600000000000000E-002   -4.910335027178270E-025
 -3.590000000000000E-002   -7.096904924782827E-025
 -3.580000000000000E-002   -9.400646393185406E-025
 -3.570000000000000E-002   -1.118477504750882E-024
 -3.560000000000000E-002   -1.132126771131057E-024
 -3.550000000000000E-002   -8.063678219356342E-025
 -3.540000000000000E-002    1.010453479217162E-025
 -3.530000000000000E-002    1.891132942640224E-024
 -3.520000000000000E-002    4.890677033259838E-024
 -3.510000000000000E-002    9.384654056740524E-024
 -3.500000000000000E-002    1.550525123900959E-023
 -3.490000000000000E-002    2.307361685697959E-023
 -3.480000000000000E-002    3.140006668795143E-023
 -3.470000000000000E-002    3.906320167173731E-023
 -3.460000000000000E-002    4.370791457247725E-023
 -3.450000000000000E-002    4.192469280541666E-023
 -3.440000000000000E-002    2.929434712466490E-023
 -3.430000000000000E-002    6.975463644979999E-025
 -3.420000000000000E-002   -4.901043400330049E-023
 -3.410000000000000E-002   -1.238807602943815E-022
 -3.400000000000000E-002   -2.252815863929882E-022
 -3.390000000000000E-002   -3.499008440623072E-022
 -3.380000000000000E-002   -4.875306262872867E-022
 -3.370000000000000E-002   -6.189783931164431E-022
 -3.360000000000000E-002   -7.146181580908783E-022
 -3.350000000000000E-002   -7.342447542991202E-022
 -3.340000000000000E-002   -6.289838332963196E-022
 -3.330000000000000E-002   -3.459931565199096E-022
 -3.320000000000000E-002    1.634887609491863E-022
 -3.310000000000000E-002    9.325702162064119E-022
 -3.300000000000000E-002    1.964039158066678E-021
 -3.290000000000000E-002    3.213847869008455E-021
 -3.280000000000000E-002    4.574967147386729E-021
 -3.270000000000000E-002    5.864831589846070E-021
 -3.260000000000000E-002    6.820465049064400E-021
 -3.250000000000000E-002    7.105872149769411E-021
 -3.240000000000000E-002    6.336161911675394E-021
 -3.230000000000000E-002    4.121878387203245E-021
 -3.220000000000000E-002    1.349560357827021E-022
 -3.210000000000000E-002   -5.805471922806592E-021
 -3.200000000000000E-002   -1.363342982134872E-020
 -3.190000000000000E-002   -2.293362039518696E-020
 -3.180000000000000E-002   -3.285225917664901E-020
 -3.170000000000000E-002   -4.204187726588254E-020
 -3.160000000000000E-002   -4.866361435077924E-020
 -3.150000000000000E-002   -5.047062221131316E-020
 -3.140000000000000E-002   -4.499245442695620E-020
 -3.130000000000000E-002   -2.983199814455512E-020
 -3.120000000000000E-002   -3.073114986308404E-021
 -3.110000000000000E-002    3.622079448075466E-020
 -3.100000000000000E-002    8.745866324891908E-020
 -3.090000000000000E-002    1.479881888587334E-019
 -3.080000000000000E-002    2.126622484233564E-019
 -3.070000000000000E-002    2.736064396908821E-019
 -3.060000000000000E-002    3.202951758751269E-019
 -3.050000000000000E-002    3.400362518473156E-019
 -3.040000000000000E-002    3.189396608328734E-019
 -3.030000000000000E-002    2.434034777937041E-019
 -3.020000000000000E-002    1.020883161420405E-019
 -3.010000000000000E-002   -1.117241950741657E-019
 -3.000000000000000E-002   -3.975796244787923E-019
 -2.990000000000000E-002   -7.453809131044118E-019
 -2.980000000000000E-002   -1.133350729825244E-018
 -2.970000000000000E-002   -1.526823769306190E-018
 -2.960000000000000E-002   -1.878280013027724E-018
 -2.950000000000000E-002   -2.128987692034570E-018
 -2.940000000000000E-002   -2.212531878096684E-018
 -2.930000000000000E-002   -2.060344202555224E-018
 -2.920000000000000E-002   -1.609137833704644E-018
 -2.910000000000000E-002   -8.098963630016904E-019
 -2.900000000000000E-002    3.622117913320005E-019
 -2.890000000000000E-002    1.897893941774900E-018
 -2.880000000000000E-002    3.744891929045415E-018
 -2.870000000000000E-002    5.801520034046723E-018
 -2.860000000000000E-002    7.913888406544518E-018
 -2.850000000000000E-002    9.878025121815058E-018
 -2.840000000000000E-002    1.144783691540099E-017
 -2.830000000000000E-002    1.234942674777330E-017
 -2.820000000000000E-002    1.230171950050283E-017
 -2.810000000000000E-002    1.104266693017766E-017
 -2.800000000000000E-002    8.359577134072923E-018
 -2.790000000000000E-002    4.121397838646379E-018
 -2.780000000000000E-002   -1.689828644905297E-018
 -2.770000000000000E-002   -8.951554572494049E-018
 -2.760000000000000E-002   -1.738076396649693E-017
 -2.750000000000000E-002   -2.652471966499502E-017
 -2.740000000000000E-002   -3.576521576116567E-017
 -2.730000000000000E-002   -4.433831381835814E-017
 -2.720000000000000E-002   -5.137040520530937E-017
 -2.710000000000000E-002   -5.593009868312986E-017
 -2.700000000000000E-002   -5.709394223686716E-017
 -2.690000000000000E-002   -5.402252673253132E-017
 -2.680000000000000E-002   -4.604218875012627E-017
 -2.670000000000000E-002   -3.272646624275360E-017
 -2.660000000000000E-002   -1.397089938781620E-017
 -2.650000000000000E-002    9.945434983125491E-018
 -2.640000000000000E-002    3.831778953505027E-017
 -2.630000000000000E-002    6.999827533042199E-017
 -2.620000000000000E-002    1.034068622065457E-016
 -2.610000000000000E-002    1.365729572126746E-016
 -2.600000000000000E-002    1.672077704586711E-016
 -2.590000000000000E-002    1.928056314492026E-016
 -2.580000000000000E-002    2.107707956959243E-016
 -2.570000000000000E-002    2.185645400895474E-016
 -2.560000000000000E-002    2.138664383107234E-016
 -2.550000000000000E-002    1.947428511745015E-016
 -2.540000000000000E-002    1.598152376246401E-016
 -2.530000000000000E-002    1.084209484039801E-016
 -2.520000000000000E-002    4.075897412099489E-017
 -2.510000000000000E-002   -4.198691979617575E-017
 -2.500000000000000E-002   -1.375554088320203E-016
 -2.490000000000000E-002   -2.425537507369604E-016
 -2.480000000000000E-002   -3.524518691843043E-016
 -2.470000000000000E-002   -4.616348594616163E-016
 -2.460000000000000E-002   -5.635243826731910E-016
 -2.450000000000000E-002   -6.507799894889601E-016
 -2.440000000000000E-002   -7.155897187554178E-016
 -2.430000000000000E-002   -7.500564210491279E-016
 -2.420000000000000E-002   -7.466799124941972E-016
 -2.410000000000000E-002   -6.989281050414888E-016
 -2.400000000000000E-002   -6.018772888099919E-016
 -2.390000000000000E-002   -4.528897605172392E-016
 -2.380000000000000E-002   -2.522811386273168E-016
 -2.370000000000000E-002   -3.915167619189363E-018
 -2.360000000000000E-002    2.843483904220393E-016
 -2.350000000000000E-002    6.004361861583296E-016
 -2.340000000000000E-002    9.281562571929761E-016
 -2.330000000000000E-002    1.247680492372189E-015
 -2.320000000000000E-002    1.536467016088690E-015
 -2.310000000000000E-002    1.770641450828606E-015
 -2.300000000000000E-002    1.926809880645223E-015
 -2.290000000000000E-002    1.984220136799758E-015
 -2.280000000000000E-002    1.927125528157814E-015
 -2.270000000000000E-002    1.747143597849323E-015
 -2.260000000000000E-002    1.445349113242335E-015
 -2.250000000000000E-002    1.033804790247195E-015
 -2.240000000000000E-002    5.362239589998141E-016
 -2.230000000000000E-002   -1.251337623914956E-017
 -2.220000000000000E-002   -5.682026826120711E-016
 -2.210000000000000E-002   -1.080616119610167E-015
 -2.200000000000000E-002   -1.498209079597562E-015
 -2.190000000000000E-002   -1.773996141410353E-015
 -2.180000000000000E-002   -1.872158619335239E-015
 -2.170000000000000E-002   -1.774748469445404E-015
 -2.160000000000000E-002   -1.487686692295210E-015
 -2.150000000000000E-002   -1.045147671853740E-015
 -2.140000000000000E-002   -5.113989274932147E-016
 -2.130000000000000E-002    2.074105377846068E-017
 -2.120000000000000E-002    4.354513069315645E-016
 -2.110000000000000E-002    6.037349193975785E-016
 -2.100000000000000E-002    3.973391227961535E-016
 -2.090000000000000E-002   -2.939719328366753E-016
 -2.080000000000000E-002   -1.543112911129208E-015
 -2.070000000000000E-002   -3.366227852130492E-015
 -2.060000000000000E-002   -5.705434402902603E-015
 -2.050000000000000E-002   -8.416376224724028E-015
 -2.040000000000000E-002   -1.126320971411971E-014
 -2.030000000000000E-002   -1.392335540422571E-014
 -2.020000000000000E-002   -1.600368636469225E-014
 -2.010000000000000E-002   -1.706883195358619E-014
 -2.000000000000000E-002   -1.668098470808873E-014
 -1.990000000000000E-002   -1.444909642127977E-014
 -1.980000000000000E-002   -1.008379690716251E-014
 -1.970000000000000E-002   -3.452931045979878E-015
 -1.960000000000000E-002    5.368528242865240E-015
 -1.950000000000000E-002    1.606103876052025E-014
 -1.940000000000000E-002    2.804229984970059E-014
 -1.930000000000000E-002    4.047419411511741E-014
 -1.920000000000000E-002    5.229898728729400E-014
 -1.910000000000000E-002    6.230632428868094E-014
 -1.900000000000000E-002    6.922931977845472E-014
 -1.890000000000000E-002    7.186437469665693E-014
 -1.880000000000000E-002    6.920564719969040E-014
 -1.870000000000000E-002    6.058183940264832E-014
 -1.860000000000000E-002    4.578046268394602E-014
 -1.850000000000000E-002    2.514367485739031E-014
 -1.840000000000000E-002   -3.797625306454531E-016
 -1.830000000000000E-002   -2.923935999990461E-014
 -1.820000000000000E-002   -5.935326252929697E-014
 -1.810000000000000E-002   -8.824656383979807E-014
 -1.800000000000000E-002   -1.132527655165854E-013
 -1.790000000000000E-002   -1.317653466902441E-013
 -1.780000000000000E-002   -1.415187643868451E-013
 -1.770000000000000E-002   -1.408713907809893E-013
 -1.760000000000000E-002   -1.290585409529303E-013
 -1.750000000000000E-002   -1.063822994233575E-013
 -1.740000000000000E-002   -7.430711942002565E-014
 -1.730000000000000E-002   -3.543656242733815E-014
 -1.720000000000000E-002    6.643253438650982E-015
 -1.710000000000000E-002    4.765443322946329E-014
 -1.700000000000000E-002    8.303757577719285E-014
 -1.690000000000000E-002    1.084504129127094E-013
 -1.680000000000000E-002    1.203088750986586E-013
 -1.670000000000000E-002    1.163124378373168E-013
 -1.660000000000000E-002    9.588949913891779E-014
 -1.650000000000000E-002    6.049797320831466E-014
 -1.640000000000000E-002    1.372455993976083E-014
 -1.630000000000000E-002   -3.885841225054882E-014
 -1.620000000000000E-002   -9.009676792811274E-014
 -1.610000000000000E-002   -1.319084695382496E-013
 -1.600000000000000E-002   -1.561464339820439E-013
 -1.590000000000000E-002   -1.555974693665440E-013
 -1.580000000000000E-002   -1.250183052618731E-013
 -1.570000000000000E-002   -6.209072589356243E-014
 -1.560000000000000E-002    3.182929951472613E-014
 -1.550000000000000E-002    1.512873043618551E-013
 -1.540000000000000E-002    2.867279272948583E-013
 -1.530000000000000E-002    4.249754138656030E-013
 -1.520000000000000E-002    5.502098903600840E-013
 -1.510000000000000E-002    6.453950910729003E-013
 -1.500000000000000E-002    6.940550557009086E-013
 -1.490000000000000E-002    6.822411502038720E-013
 -1.480000000000000E-002    6.004877649070677E-013
 -1.470000000000000E-002    4.455286869929247E-013
 -1.460000000000000E-002    2.215435216408997E-013
 -1.450000000000000E-002   -5.927223798763456E-014
 -1.440000000000000E-002   -3.769684050086823E-013
 -1.430000000000000E-002   -7.050110339346596E-013
 -1.420000000000000E-002   -1.012346500390148E-012
 -1.410000000000000E-002   -1.266235847904971E-012
 -1.400000000000000E-002   -1.435632823665730E-012
 -1.390000000000000E-002   -1.494786594846457E-012
 -1.380000000000000E-002   -1.426686206786679E-012
 -1.370000000000000E-002   -1.225933209060446E-012
 -1.360000000000000E-002   -9.006470128989136E-013
 -1.350000000000000E-002   -4.730694837279799E-013
 -1.340000000000000E-002    2.135235757156121E-014
 -1.330000000000000E-002    5.364785687108133E-013
 -1.320000000000000E-002    1.019479566916821E-012
 -1.310000000000000E-002    1.416042763430151E-012
 -1.300000000000000E-002    1.676323077447796E-012
 -1.290000000000000E-002    1.761038022254060E-012
 -1.280000000000000E-002    1.647024210084086E-012
 -1.270000000000000E-002    1.331557272582372E-012
 -1.260000000000000E-002    8.348014357959395E-013
 -1.250000000000000E-002    1.999013754890987E-013
 -1.240000000000000E-002   -5.095515135901526E-013
 -1.230000000000000E-002   -1.214672993305446E-012
 -1.220000000000000E-002   -1.828748378145210E-012
 -1.210000000000000E-002   -2.266392059450908E-012
 -1.200000000000000E-002   -2.453528862661186E-012
 -1.190000000000000E-002   -2.337131508942505E-012
 -1.180000000000000E-002   -1.893565705653201E-012
 -1.170000000000000E-002   -1.134429203625984E-012
 -1.160000000000000E-002   -1.089481341297485E-013
 -1.150000000000000E-002    1.097707292175384E-012
 -1.140000000000000E-002    2.370417562058776E-012
 -1.130000000000000E-002    3.574173364434421E-012
 -1.120000000000000E-002    4.567453190920226E-012
 -1.110000000000000E-002    5.217711638801136E-012
 -1.100000000000000E-002    5.417397886239421E-012
 -1.090000000000000E-002    5.098700859928513E-012
 -1.080000000000000E-002    4.245181068154751E-012
 -1.070000000000000E-002    2.898616533089159E-012
 -1.060000000000000E-002    1.159788685697810E-012
 -1.050000000000000E-002   -8.175049378890564E-013
 -1.040000000000000E-002   -2.839192972754862E-012
 -1.030000000000000E-002   -4.689629389037281E-012
 -1.020000000000000E-002   -6.154669610765166E-012
 -1.010000000000000E-002   -7.046872429232469E-012
 -1.000000000000000E-002   -7.230096006310501E-012
 -9.899999999999999E-003   -6.640549796915526E-012
 -9.800000000000000E-003   -5.301472611221935E-012
 -9.699999999999999E-003   -3.329056543834317E-012
 -9.599999999999999E-003   -9.280115742486685E-013
 -9.500000000000000E-003    1.623793203510630E-012
 -9.399999999999999E-003    4.000973853450564E-012
 -9.299999999999999E-003    5.864657684151086E-012
 -9.200000000000000E-003    6.901825017685134E-012
 -9.099999999999999E-003    6.865968444645298E-012
 -8.999999999999999E-003    5.614501391161956E-012
 -8.900000000000000E-003    3.138252347087010E-012
 -8.799999999999999E-003   -4.212020797594783E-013
 -8.699999999999999E-003   -4.769657039810795E-012
 -8.600000000000000E-003   -9.475734095219425E-012
 -8.499999999999999E-003   -1.400377433653123E-011
 -8.399999999999999E-003   -1.776232211907764E-011
 -8.300000000000000E-003   -2.016440848840701E-011
 -8.199999999999999E-003   -2.069413880561824E-011
 -8.100000000000000E-003   -1.897284777807294E-011
 -8.000000000000000E-003   -1.481744306303670E-011
 -7.899999999999999E-003   -8.283734516002725E-012
 -7.800000000000000E-003    3.115408683790709E-013
 -7.699999999999999E-003    1.039451118649485E-011
 -7.599999999999999E-003    2.116592340589283E-011
 -7.499999999999999E-003    3.166015567059976E-011
 -7.399999999999999E-003    4.082774088654008E-011
 -7.299999999999999E-003    4.763480830636272E-011
 -7.199999999999999E-003    5.117041158310704E-011
 -7.100000000000000E-003    5.075107853025713E-011
 -6.999999999999999E-003    4.601130500191571E-011
 -6.899999999999999E-003    3.696925233101333E-011
 -6.800000000000000E-003    2.405867395307476E-011
 -6.699999999999999E-003    8.120913793566536E-012
 -6.599999999999999E-003   -9.645386710708211E-012
 -6.499999999999999E-003   -2.777499201391434E-011
 -6.399999999999999E-003   -4.466087598119271E-011
 -6.299999999999999E-003   -5.870272470372160E-011
 -6.199999999999999E-003   -6.846553450091436E-011
 -6.100000000000000E-003   -7.283256275594032E-011
 -5.999999999999999E-003   -7.113650074469457E-011
 -5.899999999999999E-003   -6.325375615521596E-011
 -5.800000000000000E-003   -4.964973607391780E-011
 -5.699999999999999E-003   -3.136724646740181E-011
 -5.599999999999999E-003   -9.955658954610362E-012
 -5.499999999999999E-003    1.265546273405723E-011
 -5.399999999999999E-003    3.432852435620285E-011
 -5.299999999999999E-003    5.292064670822749E-011
 -5.199999999999999E-003    6.649774432084951E-011
 -5.099999999999999E-003    7.353828140973260E-011
 -4.999999999999999E-003    7.310497316220555E-011
 -4.899999999999999E-003    6.496482746936221E-011
 -4.799999999999999E-003    4.964237263786780E-011
 -4.699999999999999E-003    2.839713420228013E-011
 -4.599999999999999E-003    3.124092297127671E-012
 -4.499999999999999E-003   -2.381601402594154E-011
 -4.399999999999999E-003   -4.982179041898920E-011
 -4.299999999999999E-003   -7.231020773244310E-011
 -4.199999999999999E-003   -8.898330684861486E-011
 -4.099999999999999E-003   -9.807414689186933E-011
 -3.999999999999999E-003   -9.854447151050004E-011
 -3.899999999999999E-003   -9.021031513057479E-011
 -3.799999999999999E-003   -7.377862432606732E-011
 -3.699999999999999E-003   -5.078684272156440E-011
 -3.599999999999999E-003   -2.344782877176272E-011
 -3.499999999999999E-003    5.586853210888263E-012
 -3.399999999999999E-003    3.352231222822601E-011
 -3.299999999999999E-003    5.774354197015532E-011
 -3.199999999999999E-003    7.613069721930433E-011
 -3.099999999999999E-003    8.732923287245812E-011
 -2.999999999999999E-003    9.094087373306865E-011
 -2.899999999999999E-003    8.760781135840594E-011
 -2.799999999999999E-003    7.897326797760554E-011
 -2.699999999999999E-003    6.751419761420958E-011
 -2.599999999999999E-003    5.625647307623582E-011
 -2.499999999999999E-003    4.839699390942733E-011
 -2.399999999999999E-003    4.686960930007643E-011
 -2.299999999999999E-003    5.390104684850483E-011
 -2.199999999999999E-003    7.060784215728981E-011
 -2.099999999999999E-003    9.668497289802844E-011
 -1.999999999999999E-003    1.302306653976209E-010
 -1.899999999999999E-003    1.677406766492274E-010
 -1.799999999999999E-003    2.042894222319805E-010
 -1.699999999999999E-003    2.338965860148578E-010
 -1.599999999999999E-003    2.500573522142099E-010
 -1.499999999999999E-003    2.463955229096695E-010
 -1.399999999999999E-003    2.173817162834234E-010
 -1.299999999999999E-003    1.590478397342703E-010
 -1.199999999999999E-003    6.962335583581779E-011
 -1.099999999999999E-003   -4.997866432524440E-011
 -9.999999999999989E-004   -1.958883879572976E-010
 -8.999999999999990E-004   -3.612638438136245E-010
 -7.999999999999990E-004   -5.365571233891758E-010
 -6.999999999999989E-004   -7.100574734815260E-010
 -5.999999999999990E-004   -8.686806865965920E-010
 -4.999999999999989E-004   -9.989468006066546E-010
 -3.999999999999989E-004   -1.088066488789782E-009
 -2.999999999999989E-004   -1.125041540232363E-009
 -1.999999999999989E-004   -1.101677167495671E-009
 -9.999999999999892E-005   -1.013409337456715E-009
  1.084202172485504E-018   -8.598610005600757E-010
  1.000000000000011E-004   -6.450658176304387E-010
  2.000000000000011E-004   -3.773264935044561E-010
  3.000000000000011E-004   -6.870983457176635E-011
  4.000000000000011E-004    2.657839842601113E-010
  5.000000000000011E-004    6.093057125528914E-010
  6.000000000000011E-004    9.443974062058797E-010
  7.000000000000011E-004    1.254269373438481E-009
  8.000000000000011E-004    1.523990229967586E-009
  9.000000000000012E-004    1.741469020051022E-009
  1.000000000000001E-003    1.898127564715274E-009
  1.100000000000001E-003    1.989191426219165E-009
  1.200000000000001E-003    2.013563060333953E-009
  1.300000000000001E-003    1.973288453405821E-009
  1.400000000000001E-003    1.872669549313508E-009
  1.500000000000001E-003    1.717118519732734E-009
  1.600000000000001E-003    1.511884274601407E-009
  1.700000000000001E-003    1.260799367304960E-009
  1.800000000000001E-003    9.652087175594535E-010
  1.900000000000001E-003    6.232288579506762E-010
  2.000000000000001E-003    2.294652466887146E-010
  2.100000000000001E-003   -2.247254837676206E-010
  2.200000000000001E-003   -7.503858214587039E-010
  2.300000000000001E-003   -1.359536897275974E-009
  2.400000000000001E-003   -2.063253973349057E-009
  2.500000000000001E-003   -2.869362683352210E-009
  2.600000000000001E-003   -3.779913095331329E-009
  2.700000000000001E-003   -4.788617983905015E-009
  2.800000000000001E-003   -5.878457657066723E-009
  2.900000000000001E-003   -7.019616252461855E-009
  3.000000000000001E-003   -8.167928783948729E-009
  3.100000000000001E-003   -9.263925065492027E-009
  3.200000000000001E-003   -1.023252823814099E-008
  3.300000000000001E-003   -1.098339116225157E-008
  3.400000000000001E-003   -1.141180187568696E-008
  3.500000000000001E-003   -1.140000111810154E-008
  3.600000000000001E-003   -1.081874653200164E-008
  3.700000000000001E-003   -9.528914520251252E-009
  3.800000000000001E-003   -7.382944539183151E-009
  3.900000000000001E-003   -4.225909679503359E-009
  4.000000000000001E-003    1.039427002412688E-010
  4.100000000000001E-003    5.775183120357654E-009
  4.200000000000001E-003    1.296391647057502E-008
  4.300000000000001E-003    2.185495904838076E-008
  4.400000000000001E-003    3.264351772830161E-008
  4.500000000000001E-003    4.553708696052041E-008
  4.600000000000002E-003    6.075734679484464E-008
  4.700000000000001E-003    7.854181131330696E-008
  4.800000000000001E-003    9.914500328359645E-008
  4.900000000000002E-003    1.228388938116307E-007
  5.000000000000001E-003    1.499124669891778E-007
  5.100000000000001E-003    1.806704483809069E-007
  5.200000000000001E-003    2.154310241167910E-007
  5.300000000000002E-003    2.545228823607279E-007
  5.400000000000001E-003    2.982817092506017E-007
  5.500000000000001E-003    3.470464101490967E-007
  5.600000000000002E-003    4.011554768746050E-007
  5.700000000000001E-003    4.609438240405357E-007
  5.800000000000001E-003    5.267405626467163E-007
  5.900000000000002E-003    5.988677767323733E-007
  6.000000000000001E-003    6.776407316274086E-007
  6.100000000000001E-003    7.633696303049482E-007
  6.200000000000002E-003    8.563627995017206E-007
  6.300000000000002E-003    9.569306603835041E-007
  6.400000000000001E-003    1.065392007099703E-006
  6.500000000000001E-003    1.182079207130300E-006
  6.600000000000002E-003    1.307345211757632E-006
  6.700000000000001E-003    1.441569012916235E-006
  6.800000000000001E-003    1.585161332767861E-006
  6.900000000000002E-003    1.738568601503110E-006
  7.000000000000001E-003    1.902275764701203E-006
  7.100000000000001E-003    2.076807586060038E-006
  7.200000000000002E-003    2.262728474894225E-006
  7.300000000000002E-003    2.460640672517093E-006
  7.400000000000001E-003    2.671181183294079E-006
  7.500000000000001E-003    2.895019439001506E-006
  7.600000000000002E-003    3.132852520523674E-006
  7.700000000000001E-003    3.385403749385931E-006
  7.800000000000001E-003    3.653419909837303E-006
  7.900000000000001E-003    3.937670455840399E-006
  8.000000000000002E-003    4.238950125737320E-006
  8.100000000000001E-003    4.558080767878481E-006
  8.200000000000001E-003    4.895919228148856E-006
  8.300000000000002E-003    5.253362043555757E-006
  8.400000000000001E-003    5.631356830448603E-006
  8.500000000000002E-003    6.030910616037035E-006
  8.600000000000002E-003    6.453100494459970E-006
  8.700000000000001E-003    6.899084286026634E-006
  8.800000000000002E-003    7.370109700496956E-006
  8.900000000000002E-003    7.867522824695014E-006
  9.000000000000001E-003    8.392771933629016E-006
  9.100000000000002E-003    8.947414484552003E-006
  9.200000000000002E-003    9.533118380040179E-006
  9.300000000000001E-003    1.015166093424606E-005
  9.400000000000002E-003    1.080492928747130E-005
  9.500000000000001E-003    1.149491675969373E-005
  9.600000000000001E-003    1.222372012527272E-005
  9.700000000000002E-003    1.299353941067228E-005
  9.800000000000001E-003    1.380667307976668E-005
  9.900000000000001E-003    1.466552237304063E-005
  1.000000000000000E-002    1.557259155514693E-005
  1.010000000000000E-002    1.653049509847902E-005
  1.020000000000000E-002    1.754196062325252E-005
  1.030000000000000E-002    1.860984408511252E-005
  1.040000000000000E-002    1.973713675577810E-005
  1.050000000000000E-002    2.092697687880131E-005
  1.060000000000000E-002    2.218266760868188E-005
  1.070000000000000E-002    2.350768265461385E-005
  1.080000000000000E-002    2.490568586133758E-005
  1.090000000000000E-002    2.638053144635584E-005
  1.100000000000000E-002    2.793627652364982E-005
  1.110000000000000E-002    2.957718882220571E-005
  1.120000000000000E-002    3.130774728124670E-005
  1.130000000000000E-002    3.313264534201786E-005
  1.140000000000000E-002    3.505679028436449E-005
  1.150000000000000E-002    3.708530215236774E-005
  1.160000000000000E-002    3.922351712950707E-005
  1.170000000000000E-002    4.147698763723987E-005
  1.180000000000000E-002    4.385149054153727E-005
  1.190000000000000E-002    4.635302311095380E-005
  1.200000000000000E-002    4.898782739587345E-005
  1.210000000000000E-002    5.176239423756693E-005
  1.220000000000000E-002    5.468347670682559E-005
  1.230000000000000E-002    5.775812288897194E-005
  1.240000000000000E-002    6.099367531079097E-005
  1.250000000000000E-002    6.439782700157222E-005
  1.260000000000000E-002    6.797859847043684E-005
  1.270000000000000E-002    7.174439014320413E-005
  1.280000000000000E-002    7.570399870176567E-005
  1.290000000000000E-002    7.986662943291751E-005
  1.300000000000000E-002    8.424190044072096E-005
  1.310000000000000E-002    8.883985451615508E-005
  1.320000000000000E-002    9.367098643853957E-005
  1.330000000000000E-002    9.874621160115334E-005
  1.340000000000000E-002    1.040768908987696E-004
  1.350000000000000E-002    1.096748434977114E-004
  1.360000000000000E-002    1.155523153310082E-004
  1.370000000000000E-002    1.217220085736213E-004
  1.380000000000000E-002    1.281970792740735E-004
  1.390000000000000E-002    1.349911490627411E-004
  1.400000000000000E-002    1.421183515679645E-004
  1.410000000000000E-002    1.495932865716976E-004
  1.420000000000000E-002    1.574311052735274E-004
  1.430000000000000E-002    1.656475309912576E-004
  1.440000000000000E-002    1.742588670500396E-004
  1.450000000000000E-002    1.832820496610773E-004
  1.460000000000000E-002    1.927346757712974E-004
  1.470000000000000E-002    2.026350162949956E-004
  1.480000000000000E-002    2.130021009767407E-004
  1.490000000000000E-002    2.238556895066812E-004
  1.500000000000000E-002    2.352163619242300E-004
  1.510000000000000E-002    2.471054026953395E-004
  1.520000000000000E-002    2.595449563875294E-004
  1.530000000000000E-002    2.725579814705143E-004
  1.540000000000000E-002    2.861682253661840E-004
  1.550000000000000E-002    3.004002662487630E-004
  1.560000000000000E-002    3.152795040048699E-004
  1.570000000000000E-002    3.308321820906502E-004
  1.580000000000000E-002    3.470854026457656E-004
  1.590000000000000E-002    3.640670280647716E-004
  1.600000000000000E-002    3.818058870142144E-004
  1.610000000000000E-002    4.003316554272872E-004
  1.620000000000000E-002    4.196748858519625E-004
  1.630000000000000E-002    4.398671707025204E-004
  1.640000000000000E-002    4.609410843430103E-004
  1.650000000000000E-002    4.829301960154064E-004
  1.660000000000000E-002    5.058691718111438E-004
  1.670000000000000E-002    5.297937665416958E-004
  1.680000000000000E-002    5.547409392104402E-004
  1.690000000000000E-002    5.807487493187189E-004
  1.700000000000000E-002    6.078564893994640E-004
  1.710000000000000E-002    6.361047246000409E-004
  1.720000000000000E-002    6.655351903815944E-004
  1.730000000000000E-002    6.961908708634209E-004
  1.740000000000000E-002    7.281160257708901E-004
  1.750000000000000E-002    7.613561236462078E-004
  1.760000000000000E-002    7.959579632841865E-004
  1.770000000000000E-002    8.319695230447604E-004
  1.780000000000000E-002    8.694399962685471E-004
  1.790000000000000E-002    9.084199073569754E-004
  1.800000000000000E-002    9.489611248427779E-004
  1.810000000000000E-002    9.911166911692713E-004
  1.820000000000000E-002    1.034941116321494E-003
  1.830000000000000E-002    1.080490178926273E-003
  1.840000000000000E-002    1.127821122005760E-003
  1.850000000000000E-002    1.176992549458483E-003
  1.860000000000000E-002    1.228064667224962E-003
  1.870000000000000E-002    1.281099173543556E-003