 -4.000000000000000E-002    0.000000000000000E+000
 -3.990000000000000E-002    0.000000000000000E+000
 -3.980000000000000E-002    0.000000000000000E+000
 -3.970000000000000E-002    0.000000000000000E+000
 -3.960000000000000E-002    0.000000000000000E+000
 -3.950000000000000E-002    0.000000000000000E+000
 -3.940000000000000E-002    0.000000000000000E+000
 -3.930000000000000E-002    0.000000000000000E+000
 -3.920000000000000E-002    0.000000000000000E+000
 -3.910000000000000E-002    0.000000000000000E+000
 -3.900000000000000E-002    0.000000000000000E+000
 -3.890000000000000E-002    0.000000000000000E+000
 -3.880000000000000E-002    0.000000000000000E+000
 -3.870000000000000E-002    0.000000000000000E+000
 -3.860000000000000E-002    0.000000000000000E+000
 -3.850000000000000E-002    0.000000000000000E+000
 -3.840000000000000E-002    0.000000000000000E+000
 -3.830000000000000E-002    0.000000000000000E+000
 -3.820000000000000E-002    0.000000000000000E+000
 -3.810000000000000E-002    0.000000000000000E+000
 -3.800000000000000E-002    0.000000000000000E+000
 -3.790000000000000E-002    0.000000000000000E+000
 -3.780000000000000E-002    0.000000000000000E+000
 -3.770000000000000E-002    0.000000000000000E+000
 -3.760000000000000E-002    0.000000000000000E+000
 -3.750000000000000E-002    0.000000000000000E+000
 -3.740000000000000E-002    0.000000000000000E+000
 -3.730000000000000E-002    0.000000000000000E+000
 -3.720000000000000E-002    0.000000000000000E+000
 -3.710000000000000E-002    0.000000000000000E+000
 -3.700000000000000E-002    0.000000000000000E+000
 -3.690000000000000E-002    0.000000000000000E+000
 -3.680000000000000E-002    0.000000000000000E+000
 -3.670000000000000E-002    0.000000000000000E+000
 -3.660000000000000E-002    0.000000000000000E+000
 -3.650000000000000E-002    0.000000000000000E+000
 -3.640000000000000E-002    0.000000000000000E+000
 -3.630000000000000E-002    0.000000000000000E+000
 -3.620000000000000E-002    0.000000000000000E+000
 -3.610000000000000E-002    0.000000000000000E+000
 -3.600000000000000E-002    0.000000000000000E+000
 -3.590000000000000E-002    0.000000000000000E+000
 -3.580000000000000E-002    0.000000000000000E+000
 -3.570000000000000E-002    0.000000000000000E+000
 -3.560000000000000E-002    0.000000000000000E+000
 -3.550000000000000E-002    0.000000000000000E+000
 -3.540000000000000E-002    0.000000000000000E+000
 -3.530000000000000E-002    0.000000000000000E+000
 -3.520000000000000E-002    0.000000000000000E+000
 -3.510000000000000E-002    0.000000000000000E+000
 -3.500000000000000E-002    0.000000000000000E+000
 -3.490000000000000E-002    0.000000000000000E+000
 -3.480000000000000E-002    0.000000000000000E+000
 -3.470000000000000E-002    0.000000000000000E+000
 -3.460000000000000E-002    0.000000000000000E+000
 -3.450000000000000E-002    0.000000000000000E+000
 -3.440000000000000E-002    0.000000000000000E+000
 -3.430000000000000E-002    0.000000000000000E+000
 -3.420000000000000E-002    0.000000000000000E+000
 -3.410000000000000E-002    0.000000000000000E+000
 -3.400000000000000E-002    0.000000000000000E+000
 -3.390000000000000E-002    0.000000000000000E+000
 -3.380000000000000E-002    0.000000000000000E+000
 -3.370000000000000E-002    0.000000000000000E+000
 -3.360000000000000E-002    0.000000000000000E+000
 -3.350000000000000E-002    0.000000000000000E+000
 -3.340000000000000E-002    0.000000000000000E+000
 -3.330000000000000E-002    0.000000000000000E+000
 -3.320000000000000E-002    0.000000000000000E+000
 -3.310000000000000E-002    0.000000000000000E+000
 -3.300000000000000E-002    0.000000000000000E+000
 -3.290000000000000E-002    0.000000000000000E+000
 -3.280000000000000E-002    0.000000000000000E+000
 -3.270000000000000E-002    0.000000000000000E+000
 -3.260000000000000E-002    0.000000000000000E+000
 -3.250000000000000E-002    0.000000000000000E+000
 -3.240000000000000E-002    0.000000000000000E+000
 -3.230000000000000E-002    0.000000000000000E+000
 -3.220000000000000E-002    0.000000000000000E+000
 -3.210000000000000E-002    0.000000000000000E+000
 -3.200000000000000E-002    0.000000000000000E+000
 -3.190000000000000E-002    0.000000000000000E+000
 -3.180000000000000E-002    0.000000000000000E+000
 -3.170000000000000E-002    0.000000000000000E+000
 -3.160000000000000E-002    0.000000000000000E+000
 -3.150000000000000E-002    0.000000000000000E+000
 -3.140000000000000E-002    0.000000000000000E+000
 -3.130000000000000E-002    0.000000000000000E+000
 -3.120000000000000E-002    0.000000000000000E+000
 -3.110000000000000E-002    0.000000000000000E+000
 -3.100000000000000E-002    0.000000000000000E+000
 -3.090000000000000E-002    0.000000000000000E+000
 -3.080000000000000E-002    0.000000000000000E+000
 -3.070000000000000E-002    0.000000000000000E+000
 -3.060000000000000E-002    0.000000000000000E+000
 -3.050000000000000E-002    0.000000000000000E+000
 -3.040000000000000E-002    0.000000000000000E+000
 -3.030000000000000E-002   -6.102607139207818E-048
 -3.020000000000000E-002   -1.691617637728368E-047
 -3.010000000000000E-002   -4.483559211590173E-047
 -3.000000000000000E-002   -7.730610472326522E-047
 -2.990000000000000E-002   -1.097766173306287E-046
 -2.980000000000000E-002   -1.406956196675298E-046
 -2.970000000000000E-002   -1.466947928640959E-046
 -2.960000000000000E-002    4.884971279623434E-047
 -2.950000000000000E-002    3.773720621122511E-046
 -2.940000000000000E-002    1.045387053187367E-045
 -2.930000000000000E-002    1.835521163523207E-045
 -2.920000000000000E-002    3.176807108574322E-045
 -2.910000000000000E-002    4.298839135151691E-045
 -2.900000000000000E-002    5.220230714887351E-045
 -2.890000000000000E-002    5.694255342938842E-045
 -2.880000000000000E-002    3.232317946561906E-045
 -2.870000000000000E-002   -2.612000704534853E-045
 -2.860000000000000E-002   -1.295608514889135E-044
 -2.850000000000000E-002   -2.973313023908845E-044
 -2.840000000000000E-002   -5.323334628015756E-044
 -2.830000000000000E-002   -8.492556649181089E-044
 -2.820000000000000E-002   -1.212629935266628E-043
 -2.810000000000000E-002   -1.568791788078979E-043
 -2.800000000000000E-002   -1.801224240192658E-043
 -2.790000000000000E-002   -1.733402182958503E-043
 -2.780000000000000E-002   -1.095452314299612E-043
 -2.770000000000000E-002    4.293062605914172E-044
 -2.760000000000000E-002    3.209101875554479E-043
 -2.750000000000000E-002    7.574232323733582E-043
 -2.740000000000000E-002    1.370512312876283E-042
 -2.730000000000000E-002    2.144804787229844E-042
 -2.720000000000000E-002    3.012214764350034E-042
 -2.710000000000000E-002    3.825000292533052E-042
 -2.700000000000000E-002    4.329898198457740E-042
 -2.690000000000000E-002    4.152525711329083E-042
 -2.680000000000000E-002    2.796450887010275E-042
 -2.670000000000000E-002   -3.240078723577435E-043
 -2.660000000000000E-002   -5.814377540326247E-042
 -2.650000000000000E-002   -1.417102896636416E-041
 -2.640000000000000E-002   -2.559285249869113E-041
 -2.630000000000000E-002   -3.973101712821524E-041
 -2.620000000000000E-002   -5.540001299600545E-041
 -2.610000000000000E-002   -7.028306038773988E-041
 -2.600000000000000E-002   -8.068810831842631E-041
 -2.590000000000000E-002   -8.143159622512929E-041
 -2.580000000000000E-002   -6.595407302231973E-041
 -2.570000000000000E-002   -2.674147155845223E-041
 -2.560000000000000E-002    4.385109175145399E-041
 -2.550000000000000E-002    1.523374894614662E-040
 -2.540000000000000E-002    3.024147828082235E-040
 -2.530000000000000E-002    4.929394448490624E-040
 -2.520000000000000E-002    7.157008517830165E-040
 -2.510000000000000E-002    9.531988084652065E-040
 -2.500000000000000E-002    1.176616154329316E-039
 -2.490000000000000E-002    1.344125193921154E-039
 -2.480000000000000E-002    1.399575265947771E-039
 -2.470000000000000E-002    1.271487538238964E-039
 -2.460000000000000E-002    8.722382037872823E-040
 -2.450000000000000E-002    9.748767164207327E-041
 -2.440000000000000E-002   -1.173580228494264E-039
 -2.430000000000000E-002   -3.075577689977011E-039
 -2.420000000000000E-002   -5.748486856357869E-039
 -2.410000000000000E-002   -9.317970450945359E-039
 -2.400000000000000E-002   -1.385646736409750E-038
 -2.390000000000000E-002   -1.931530531763464E-038
 -2.380000000000000E-002   -2.541799009320438E-038
 -2.370000000000000E-002   -3.150830645677997E-038
 -2.360000000000000E-002   -3.635581036682673E-038
 -2.350000000000000E-002   -3.793752960276651E-038
 -2.340000000000000E-002   -3.323938217744279E-038
 -2.330000000000000E-002   -1.815314243557773E-038
 -2.320000000000000E-002    1.241856425969669E-038
 -2.310000000000000E-002    6.410331473167493E-038
 -2.300000000000000E-002    1.420815859197331E-037
 -2.290000000000000E-002    2.494396906613614E-037
 -2.280000000000000E-002    3.847654387375038E-037
 -2.270000000000000E-002    5.390331580946741E-037
 -2.260000000000000E-002    6.920432028336451E-037
 -2.250000000000000E-002    8.089847738965527E-037
 -2.240000000000000E-002    8.380604012879051E-037
 -2.230000000000000E-002    7.104949007931189E-037
 -2.220000000000000E-002    3.445648445502442E-037
 -2.210000000000000E-002   -3.445982603768437E-037
 -2.200000000000000E-002   -1.427909433024100E-036
 -2.190000000000000E-002   -2.937163893594597E-036
 -2.180000000000000E-002   -4.832429858493876E-036
 -2.170000000000000E-002   -6.964757124343250E-036
 -2.160000000000000E-002   -9.039740884648278E-036
 -2.150000000000000E-002   -1.059067227925976E-035
 -2.140000000000000E-002   -1.097309722057854E-035
 -2.130000000000000E-002   -9.394820549313932E-036
 -2.120000000000000E-002   -4.995742702419595E-036
 -2.110000000000000E-002    3.010788564360041E-036
 -2.100000000000000E-002    1.513023656800429E-035
 -2.090000000000000E-002    3.131962218399521E-035
 -2.080000000000000E-002    5.068440004492743E-035
 -2.070000000000000E-002    7.118391287253673E-035
 -2.060000000000000E-002    8.941244230425027E-035
 -2.050000000000000E-002    1.005430262987615E-034
 -2.040000000000000E-002    9.853362431341434E-035
 -2.030000000000000E-002    7.669274040956815E-035
 -2.020000000000000E-002    2.867750860187929E-035
 -2.010000000000000E-002   -5.005488797827633E-035
 -2.000000000000000E-002   -1.604047274742090E-034
 -1.990000000000000E-002   -2.975708353208872E-034
 -1.980000000000000E-002   -4.490827262498853E-034
 -1.970000000000000E-002   -5.933668507888511E-034
 -1.960000000000000E-002   -6.994018861425698E-034
 -1.950000000000000E-002   -7.280712315818835E-034
 -1.940000000000000E-002   -6.357766886288872E-034
 -1.930000000000000E-002   -3.806980830063557E-034
 -1.920000000000000E-002    6.825920035013593E-035
 -1.910000000000000E-002    7.203001893484729E-034
 -1.900000000000000E-002    1.550490576540811E-033
 -1.890000000000000E-002    2.488298630169924E-033
 -1.880000000000000E-002    3.409522691675993E-033
 -1.870000000000000E-002    4.134740168127065E-033
 -1.860000000000000E-002    4.437588991467470E-033
 -1.850000000000000E-002    4.065800550116829E-033
 -1.840000000000000E-002    2.776779796548861E-033
 -1.830000000000000E-002    3.875505237854266E-034
 -1.820000000000000E-002   -3.163924956219812E-033
 -1.810000000000000E-002   -7.752517399595672E-033
 -1.800000000000000E-002   -1.300503266818377E-032
 -1.790000000000000E-002   -1.825833154668224E-032
 -1.780000000000000E-002   -2.255257002038527E-032
 -1.770000000000000E-002   -2.467606836953042E-032
 -1.760000000000000E-002   -2.327585432804518E-032
 -1.750000000000000E-002   -1.704187321294427E-032
 -1.740000000000000E-002   -4.962772308220520E-033
 -1.730000000000000E-002    1.336266173753348E-032
 -1.720000000000000E-002    3.739097260059100E-032
 -1.710000000000000E-002    6.532660527863465E-032
 -1.700000000000000E-002    9.390747614524091E-032
 -1.690000000000000E-002    1.183599037461328E-031
 -1.680000000000000E-002    1.326003246300841E-031
 -1.670000000000000E-002    1.297493204834867E-031
 -1.660000000000000E-002    1.029952883384911E-031
 -1.650000000000000E-002    4.679964115819322E-032
 -1.640000000000000E-002   -4.162636636507681E-032
 -1.630000000000000E-002   -1.607168469044668E-031
 -1.620000000000000E-002   -3.030398195414306E-031
 -1.610000000000000E-002   -4.541702165502017E-031
 -1.600000000000000E-002   -5.922868022496343E-031
 -1.590000000000000E-002   -6.888416284985900E-031
 -1.580000000000000E-002   -7.106070821571246E-031
 -1.570000000000000E-002   -6.232952349645955E-031
 -1.560000000000000E-002   -3.967616012721243E-031
 -1.550000000000000E-002   -1.155412852640958E-032
 -1.540000000000000E-002    5.337371076063106E-031
 -1.530000000000000E-002    1.215203361835094E-030
 -1.520000000000000E-002    1.977600675814856E-030
 -1.510000000000000E-002    2.731016629462233E-030
 -1.500000000000000E-002    3.351748169946226E-030
 -1.490000000000000E-002    3.688820755513714E-030
 -1.480000000000000E-002    3.577229087627411E-030
 -1.470000000000000E-002    2.858339275404299E-030
 -1.460000000000000E-002    1.406955645933618E-030
 -1.450000000000000E-002   -8.366344178879945E-031
 -1.440000000000000E-002   -3.832693598463896E-030
 -1.430000000000000E-002   -7.410591257473212E-030
 -1.420000000000000E-002   -1.124555938017200E-029
 -1.410000000000000E-002   -1.485014830288540E-029
 -1.400000000000000E-002   -1.758704149489419E-029
 -1.390000000000000E-002   -1.870913083881014E-029
 -1.380000000000000E-002   -1.743085090259695E-029
 -1.370000000000000E-002   -1.303160258549953E-029
 -1.360000000000000E-002   -4.987682765761378E-030
 -1.350000000000000E-002    6.876367915770575E-030
 -1.340000000000000E-002    2.223223625918150E-029
 -1.330000000000000E-002    4.010952034144990E-029
 -1.320000000000000E-002    5.880129361621765E-029
 -1.310000000000000E-002    7.584352349194146E-029
 -1.300000000000000E-002    8.809845107853554E-029
 -1.290000000000000E-002    9.196781247517980E-029
 -1.280000000000000E-002    8.375217432994832E-029
 -1.270000000000000E-002    6.015727558827000E-029
 -1.260000000000000E-002    1.892688845097917E-029
 -1.250000000000000E-002   -4.044439686663106E-029
 -1.240000000000000E-002   -1.159938138305364E-028
 -1.230000000000000E-002   -2.026722774505657E-028
 -1.220000000000000E-002   -2.919526528985283E-028
 -1.210000000000000E-002   -3.718045916866418E-028
 -1.200000000000000E-002   -4.271733925948097E-028
 -1.190000000000000E-002   -4.410758176118883E-028
 -1.180000000000000E-002   -3.963755527642043E-028
 -1.170000000000000E-002   -2.782233391043862E-028
 -1.160000000000000E-002   -7.704269130240689E-029
 -1.150000000000000E-002    2.081816693808449E-028
 -1.140000000000000E-002    5.666872831992295E-028
 -1.130000000000000E-002    9.732878785559397E-028
 -1.120000000000000E-002    1.386889029991974E-027
 -1.110000000000000E-002    1.750794851979175E-027
 -1.100000000000000E-002    1.995392243048517E-027
 -1.090000000000000E-002    2.043652602846823E-027
 -1.080000000000000E-002    1.819630306765138E-027
 -1.070000000000000E-002    1.259756601861459E-027
 -1.060000000000000E-002    3.262459938510104E-028
 -1.050000000000000E-002   -9.786100460270855E-028
 -1.040000000000000E-002   -2.599038232068627E-027
 -1.030000000000000E-002   -4.415509134504848E-027
 -1.020000000000000E-002   -6.240136667047290E-027
 -1.010000000000000E-002   -7.820310561848045E-027
 -1.000000000000000E-002   -8.852776690470833E-027
 -9.899999999999999E-003   -9.009588546671419E-027
 -9.800000000000000E-003   -7.976105625587843E-027
 -9.699999999999999E-003   -5.499535766336731E-027
 -9.599999999999999E-003   -1.444513845810231E-027
 -9.500000000000000E-003    4.149906000154914E-027
 -9.399999999999999E-003    1.101945582377352E-026
 -9.299999999999999E-003    1.863916562243974E-026
 -9.200000000000000E-003    2.621297267545724E-026
 -9.099999999999999E-003    3.269766953789082E-026
 -8.999999999999999E-003    3.686846983847267E-026
 -8.900000000000000E-003    3.742982643071644E-026
 -8.799999999999999E-003    3.316993757078567E-026
 -8.699999999999999E-003    2.315083125393708E-026
 -8.600000000000000E-003    6.918638982071660E-027
 -8.499999999999999E-003   -1.528866945149827E-026
 -8.399999999999999E-003   -4.236505286438180E-026
 -8.300000000000000E-003   -7.222468407772346E-026
 -8.199999999999999E-003   -1.017884713033582E-025
 -8.100000000000000E-003   -1.270989100962404E-025
 -8.000000000000000E-003   -1.435844471614237E-025
 -7.899999999999999E-003   -1.464806411703762E-025
 -7.800000000000000E-003   -1.313965452141381E-025
 -7.699999999999999E-003   -9.499238435283116E-026
 -7.599999999999999E-003   -3.571070976364701E-026
 -7.499999999999999E-003    4.551917219168730E-026
 -7.399999999999999E-003    1.447018884733194E-025
 -7.299999999999999E-003    2.544300643344467E-025
 -7.199999999999999E-003    3.638785404976232E-025
 -7.100000000000000E-003    4.592301243337913E-025
 -6.999999999999999E-003    5.245930948863705E-025
 -6.899999999999999E-003    5.434246201246283E-025
 -6.800000000000000E-003    5.004139143932757E-025
 -6.699999999999999E-003    3.837107114128441E-025
 -6.599999999999999E-003    1.873125007005649E-025
 -6.499999999999999E-003   -8.664195144261952E-026
 -6.399999999999999E-003   -4.259769192143363E-025
 -6.299999999999999E-003   -8.073131229030141E-025
 -6.199999999999999E-003   -1.195955197246238E-024
 -6.100000000000000E-003   -1.547111705870565E-024
 -5.999999999999999E-003   -1.808635525838818E-024
 -5.899999999999999E-003   -1.925338027577436E-024
 -5.800000000000000E-003   -1.844757827107548E-024
 -5.699999999999999E-003   -1.524066180915356E-024
 -5.599999999999999E-003   -9.375811053023704E-025
 -5.499999999999999E-003   -8.416513359855471E-026
 -5.399999999999999E-003    1.006380628792539E-024
 -5.299999999999999E-003    2.268911419722928E-024
 -5.199999999999999E-003    3.601517101420681E-024
 -5.099999999999999E-003    4.867980074376286E-024
 -4.999999999999999E-003    5.904782850080288E-024
 -4.899999999999999E-003    6.532981941609531E-024
 -4.799999999999999E-003    6.574795499508795E-024
 -4.699999999999999E-003    5.874181987052690E-024
 -4.599999999999999E-003    4.320064560619567E-024
 -4.499999999999999E-003    1.870235142604741E-024
 -4.399999999999999E-003   -1.426585654459726E-024
 -4.299999999999999E-003   -5.413462504628958E-024
 -4.199999999999999E-003   -9.815848417167523E-024
 -4.099999999999999E-003   -1.424307104253513E-023
 -3.999999999999999E-003   -1.820321661125356E-023
 -3.899999999999999E-003   -2.113305179712521E-023
 -3.799999999999999E-003   -2.244334176851165E-023
 -3.699999999999999E-003   -2.157829641231112E-023
 -3.599999999999999E-003   -1.808599223325252E-023
 -3.499999999999999E-003   -1.169459169095502E-023
 -3.399999999999999E-003   -2.387297276636274E-024
 -3.299999999999999E-003    9.532662378895627E-024
 -3.199999999999999E-003    2.339670333266163E-023
 -3.099999999999999E-003    3.815510167437722E-023
 -2.999999999999999E-003    5.239974064057565E-023
 -2.899999999999999E-003    6.443226392773906E-023
 -2.799999999999999E-003    7.238107067641869E-023
 -2.699999999999999E-003    7.436597632073971E-023
 -2.599999999999999E-003    6.870373551807346E-023
 -2.499999999999999E-003    5.414135574019858E-023
 -2.399999999999999E-003    3.009796537264103E-023
 -2.299999999999999E-003   -3.109598800473925E-024
 -2.199999999999999E-003   -4.408640779109197E-023
 -2.099999999999999E-003   -9.025491143167051E-023
 -1.999999999999999E-003   -1.378557152245453E-022
 -1.899999999999999E-003   -1.820782148526488E-022
 -1.799999999999999E-003   -2.173369922806914E-022
 -1.699999999999999E-003   -2.376972804354049E-022
 -1.599999999999999E-003   -2.374371968297023E-022
 -1.499999999999999E-003   -2.117165197252859E-022
 -1.399999999999999E-003   -1.573032415657714E-022
 -1.299999999999999E-003   -7.329193035147753E-023
 -1.199999999999999E-003    3.826602161956275E-023
 -1.099999999999999E-003    1.719079730765320E-022
 -9.999999999999989E-004    3.185696270937053E-022
 -8.999999999999990E-004    4.657373433420300E-022
 -7.999999999999990E-004    5.980021643722114E-022
 -6.999999999999989E-004    6.980439787985343E-022
 -5.999999999999990E-004    7.480346282556997E-022
 -4.999999999999989E-004    7.314015092497935E-022
 -3.999999999999989E-004    6.348433769574657E-022
 -2.999999999999989E-004    4.504396796683430E-022
 -1.999999999999989E-004    1.776530099899214E-022
 -9.999999999999892E-005   -1.750071164484138E-022
  1.084202172485504E-018   -5.889032045228878E-022
  1.000000000000011E-004   -1.035005313408503E-021
  2.000000000000011E-004   -1.474641224998791E-021
  3.000000000000011E-004   -1.861394835334734E-021
  4.000000000000011E-004   -2.144197479247001E-021
  5.000000000000011E-004   -2.271542719344501E-021
  6.000000000000011E-004   -2.196628756165789E-021
  7.000000000000011E-004   -1.883099144755078E-021
  8.000000000000011E-004   -1.310925299395033E-021
  9.000000000000012E-004   -4.818680509939802E-022
  1.000000000000001E-003    5.761145163358012E-022
  1.100000000000001E-003    1.806169556871674E-021
  1.200000000000001E-003    3.122179805216082E-021
  1.300000000000001E-003    4.411233776958794E-021
  1.400000000000001E-003    5.539269551096855E-021
  1.500000000000001E-003    6.359980915406120E-021
  1.600000000000001E-003    6.726768759515691E-021
  1.700000000000001E-003    6.507181757123811E-021
  1.800000000000001E-003    5.598928750257768E-021
  1.900000000000001E-003    3.946209187493506E-021
  2.000000000000001E-003    1.554822402281130E-021
  2.100000000000001E-003   -1.495675978066426E-021
  2.200000000000001E-003   -5.044563177819464E-021
  2.300000000000001E-003   -8.848975067749878E-021
  2.400000000000001E-003   -1.259077112983881E-020
  2.500000000000001E-003   -1.589216228422441E-020
  2.600000000000001E-003   -1.834034789992067E-020
  2.700000000000001E-003   -1.952058384708720E-020
  2.800000000000001E-003   -1.905615737963376E-020
  2.900000000000001E-003   -1.665275886307022E-020
  3.000000000000001E-003   -1.214381403690070E-020
  3.100000000000001E-003   -5.532543212709091E-021
  3.200000000000001E-003    2.974001021810689E-021
  3.300000000000001E-003    1.294384989677964E-020
  3.400000000000001E-003    2.371661235528462E-020
  3.500000000000001E-003    3.442139347991999E-020
  3.600000000000001E-003    4.401864851419167E-020
  3.700000000000001E-003    5.136662760483585E-020
  3.800000000000001E-003    5.531082569966116E-020
  3.900000000000001E-003    5.479227288259067E-020
  4.000000000000001E-003    4.896788279633649E-020
  4.100000000000001E-003    3.733358316698436E-020
  4.200000000000001E-003    1.983889264750862E-020
  4.300000000000001E-003   -3.019722066821989E-021
  4.400000000000001E-003   -3.013975582388348E-020
  4.500000000000001E-003   -5.980001947047497E-020
  4.600000000000002E-003   -8.970450706648227E-020
  4.700000000000001E-003   -1.170892481679706E-019
  4.800000000000001E-003   -1.388938101412011E-019
  4.900000000000002E-003   -1.519932756150811E-019
  5.000000000000001E-003   -1.534800001527213E-019
  5.100000000000001E-003   -1.409776798978903E-019
  5.200000000000001E-003   -1.129641266015021E-019
  5.300000000000002E-003   -6.907398748236514E-020
  5.400000000000001E-003   -1.034928512261512E-020
  5.500000000000001E-003    6.059511824315132E-020
  5.600000000000002E-003    1.395220768940384E-019
  5.700000000000001E-003    2.206643247515213E-019
  5.800000000000001E-003    2.969751669227285E-019
  5.900000000000002E-003    3.605430217160465E-019
  6.000000000000001E-003    4.031609013203506E-019
  6.100000000000001E-003    4.170258917518168E-019
  6.200000000000002E-003    3.955276333295598E-019
  6.300000000000002E-003    3.340692562505334E-019
  6.400000000000001E-003    2.308514954567619E-019
  6.500000000000001E-003    8.754183747801886E-020
  6.600000000000002E-003   -9.025238249731153E-020
  6.700000000000001E-003   -2.927843441252766E-019
  6.800000000000001E-003   -5.063078760072468E-019
  6.900000000000002E-003   -7.136039139800865E-019
  7.000000000000001E-003   -8.949135295493720E-019
  7.100000000000001E-003   -1.029264196466667E-018
  7.200000000000002E-003   -1.096138707337926E-018
  7.300000000000002E-003   -1.077395789543637E-018
  7.400000000000001E-003   -9.593148155075058E-019
  7.500000000000001E-003   -7.346016192121942E-019
  7.600000000000002E-003   -4.041702286633063E-019
  7.700000000000001E-003    2.149809026019535E-020
  7.800000000000001E-003    5.216124935120315E-019
  7.900000000000001E-003    1.065119433359786E-018
  8.000000000000002E-003    1.611670211557624E-018
  8.100000000000001E-003    2.113580969892303E-018
  8.200000000000001E-003    2.518781110359846E-018
  8.300000000000002E-003    2.774656511427812E-018
  8.400000000000001E-003    2.832599795256522E-018
  8.500000000000002E-003    2.652983791466584E-018
  8.600000000000002E-003    2.210190776425638E-018
  8.700000000000001E-003    1.497260280947792E-018
  8.800000000000002E-003    5.296830916536305E-019
  8.900000000000002E-003   -6.521391222943058E-019
  9.000000000000001E-003   -1.982206989653830E-018
  9.100000000000002E-003   -3.370367271731326E-018
  9.200000000000002E-003   -4.706113050447086E-018
  9.300000000000001E-003   -5.864798907291886E-018
  9.400000000000002E-003   -6.716123458586303E-018
  9.500000000000001E-003   -7.134511106843134E-018
  9.600000000000001E-003   -7.010795031027492E-018
  9.700000000000002E-003   -6.264394334139574E-018
  9.800000000000001E-003   -4.855006540756219E-018
  9.900000000000001E-003   -2.792715389814012E-018
  1.000000000000000E-002   -1.453847521972565E-019
  1.010000000000000E-002    2.957741890953555E-018
  1.020000000000000E-002    6.327154153632284E-018
  1.030000000000000E-002    9.719554420470999E-018
  1.040000000000000E-002    1.284999942562843E-017
  1.050000000000000E-002    1.540955285400597E-017
  1.060000000000000E-002    1.708780107437544E-017
  1.070000000000000E-002    1.759906716043610E-017
  1.080000000000000E-002    1.671065432246590E-017
  1.090000000000000E-002    1.427102500823852E-017
  1.100000000000000E-002    1.023550157141166E-017
  1.110000000000000E-002    4.686919102592790E-018
  1.120000000000000E-002   -2.151302682446269E-018
  1.130000000000000E-002   -9.911943748307159E-018
  1.140000000000000E-002   -1.809240525662527E-017
  1.150000000000000E-002   -2.607583446712303E-017
  1.160000000000000E-002   -3.316511495977926E-017
  1.170000000000000E-002   -3.862879926291960E-017
  1.180000000000000E-002   -4.175695506401101E-017
  1.190000000000000E-002   -4.192372133819888E-017
  1.200000000000000E-002   -3.865235914300192E-017
  1.210000000000000E-002   -3.167773210802656E-017
  1.220000000000000E-002   -2.100060849228085E-017
  1.230000000000000E-002   -6.928061629039452E-018
  1.240000000000000E-002    9.905485883221330E-018
  1.250000000000000E-002    2.854118734410669E-017
  1.260000000000000E-002    4.772597623248687E-017
  1.270000000000000E-002    6.597157786910586E-017
  1.280000000000000E-002    8.164170470523342E-017
  1.290000000000000E-002    9.306436297330601E-017
  1.300000000000000E-002    9.866370394998887E-017
  1.310000000000000E-002    9.710340398808266E-017
  1.320000000000000E-002    8.743146822815779E-017
  1.330000000000000E-002    6.921477785006221E-017
  1.340000000000000E-002    4.265082142256543E-017
  1.350000000000000E-002    8.644209144272476E-018
  1.360000000000000E-002   -3.116341203277007E-017
  1.370000000000000E-002   -7.441915857838961E-017
  1.380000000000000E-002   -1.181462894584784E-016
  1.390000000000000E-002   -1.588948632814357E-016
  1.400000000000000E-002   -1.929523611598094E-016
  1.410000000000000E-002   -2.166057012530369E-016
  1.420000000000000E-002   -2.264405896930268E-016
  1.430000000000000E-002   -2.196592244013206E-016
  1.440000000000000E-002   -1.943931941394588E-016
  1.450000000000000E-002   -1.499855902258873E-016
  1.460000000000000E-002   -8.721526284677236E-017
  1.470000000000000E-002   -8.437139357725244E-018
  1.480000000000000E-002    8.238433009198430E-017
  1.490000000000000E-002    1.797659894017582E-016
  1.500000000000000E-002    2.769308553694130E-016
  1.510000000000000E-002    3.661673089022328E-016
  1.520000000000000E-002    4.393121859220870E-016
  1.530000000000000E-002    4.883360367064605E-016
  1.540000000000000E-002    5.059975154320221E-016
  1.550000000000000E-002    4.865244153845432E-016
  1.560000000000000E-002    4.262703327588759E-016
  1.570000000000000E-002    3.242919586397786E-016
  1.580000000000000E-002    1.827904843688776E-016
  1.590000000000000E-002    7.364175099860956E-018
  1.600000000000000E-002   -1.929727662929424E-016
  1.610000000000000E-002   -4.060373682469052E-016
  1.620000000000000E-002   -6.170065710035114E-016
  1.630000000000000E-002   -8.092226113648818E-016
  1.640000000000000E-002   -9.652480892842060E-016
  1.650000000000000E-002   -1.068120310950006E-015
  1.660000000000000E-002   -1.102732812202397E-015
  1.670000000000000E-002   -1.057252416750069E-015
  1.680000000000000E-002   -9.244657747302616E-016
  1.690000000000000E-002   -7.029417344626385E-016
  1.700000000000000E-002   -3.978956152824444E-016
  1.710000000000000E-002   -2.165014058986635E-017
  1.720000000000000E-002    4.063936101583494E-016
  1.730000000000000E-002    8.603350931435826E-016
  1.740000000000000E-002    1.308927688329260E-015
  1.750000000000000E-002    1.717289353181657E-015
  1.760000000000000E-002    2.049109299212285E-015
  1.770000000000000E-002    2.269241938977584E-015
  1.780000000000000E-002    2.346538100069817E-015
  1.790000000000000E-002    2.256724296810667E-015
  1.800000000000000E-002    1.985117375590947E-015
  1.810000000000000E-002    1.528944864523560E-015
  1.820000000000000E-002    8.990464037646509E-016
  1.830000000000000E-002    1.207506823443837E-016
  1.840000000000000E-002   -7.662397928071973E-016
  1.850000000000000E-002   -1.709067480994134E-015
  1.860000000000000E-002   -2.644083485680163E-015
  1.870000000000000E-002   -3.500314983680719E-015