 -4.000000000000000E-002    0.000000000000000E+000
 -3.990000000000000E-002    0.000000000000000E+000
 -3.980000000000000E-002    0.000000000000000E+000
 -3.970000000000000E-002   -7.454641763642540E-016
 -3.960000000000000E-002   -4.843179513577469E-015
 -3.950000000000000E-002   -1.741462786316279E-014
 -3.940000000000000E-002   -4.498031885533972E-014
 -3.930000000000000E-002   -9.085259702249613E-014
 -3.920000000000000E-002   -1.450818796333527E-013
 -3.910000000000000E-002   -1.671309139284134E-013
 -3.900000000000000E-002   -6.009851657574342E-014
 -3.890000000000000E-002    3.633878037030765E-013
 -3.880000000000000E-002    1.421451736390622E-012
 -3.870000000000000E-002    3.604768735133963E-012
 -3.860000000000000E-002    7.612239448827984E-012
 -3.850000000000000E-002    1.437030265642112E-011
 -3.840000000000000E-002    2.502344417542891E-011
 -3.830000000000000E-002    4.088282944078743E-011
 -3.820000000000000E-002    6.332098869793635E-011
 -3.810000000000000E-002    9.360380332576500E-011
 -3.800000000000000E-002    1.326569039038832E-010
 -3.790000000000000E-002    1.807713281177535E-010
 -3.780000000000000E-002    2.372633990146046E-010
 -3.770000000000000E-002    3.001143376005163E-010
 -3.760000000000000E-002    3.656257786514459E-010
 -3.750000000000000E-002    4.281363436454541E-010
 -3.740000000000000E-002    4.798512251041859E-010
 -3.730000000000000E-002    5.108386623215209E-010
 -3.720000000000000E-002    5.092437447378803E-010
 -3.710000000000000E-002    4.617621437559823E-010
 -3.700000000000000E-002    3.543993487522711E-010
 -3.690000000000000E-002    1.735204310871909E-010
 -3.680000000000000E-002   -9.283360465327144E-011
 -3.670000000000000E-002   -4.534162688183147E-010
 -3.660000000000000E-002   -9.121230567971327E-010
 -3.650000000000000E-002   -1.466336316993128E-009
 -3.640000000000000E-002   -2.105420397184274E-009
 -3.630000000000000E-002   -2.809538953909541E-009
 -3.620000000000000E-002   -3.548977962421562E-009
 -3.610000000000000E-002   -4.284152280892361E-009
 -3.600000000000000E-002   -4.966448399769496E-009
 -3.590000000000000E-002   -5.540007529185760E-009
 -3.580000000000000E-002   -5.944493586826398E-009
 -3.570000000000000E-002   -6.118791893824232E-009
 -3.560000000000000E-002   -6.005494469942910E-009
 -3.550000000000000E-002   -5.555907568930602E-009
 -3.540000000000000E-002   -4.735219966032192E-009
 -3.530000000000000E-002   -3.527379356116755E-009
 -3.520000000000000E-002   -1.939161174121612E-009
 -3.510000000000000E-002   -2.905579373891299E-012
 -3.500000000000000E-002    2.222561552546025E-009
 -3.490000000000000E-002    4.653209934179331E-009
 -3.480000000000000E-002    7.183499068664999E-009
 -3.470000000000000E-002    9.692480108419288E-009
 -3.460000000000000E-002    1.205203642559380E-008
 -3.450000000000000E-002    1.413670150753851E-008
 -3.440000000000000E-002    1.583425951532401E-008
 -3.430000000000000E-002    1.705606961554202E-008
 -3.420000000000000E-002    1.774597767539884E-008
 -3.410000000000000E-002    1.788661879761039E-008
 -3.400000000000000E-002    1.750207510741014E-008
 -3.390000000000000E-002    1.665609704148001E-008
 -3.380000000000000E-002    1.544552131317757E-008
 -3.370000000000000E-002    1.398903727615099E-008
 -3.360000000000000E-002    1.241202950002716E-008
 -3.350000000000000E-002    1.082881462544914E-008
 -3.340000000000000E-002    9.324103201014039E-009
 -3.330000000000000E-002    7.935882584975862E-009
 -3.320000000000000E-002    6.642075128790426E-009
 -3.310000000000000E-002    5.353203556370132E-009
 -3.300000000000000E-002    3.912910695900758E-009
 -3.290000000000000E-002    2.107478204064382E-009
 -3.280000000000000E-002   -3.154210520111417E-010
 -3.270000000000000E-002   -3.619588057260750E-009
 -3.260000000000000E-002   -8.046764131116252E-009
 -3.250000000000000E-002   -1.377971572859649E-008
 -3.240000000000000E-002   -2.090579484969223E-008
 -3.230000000000000E-002   -2.938529662847593E-008
 -3.220000000000000E-002   -3.902894040790493E-008
 -3.210000000000000E-002   -4.948834117149850E-008
 -3.200000000000000E-002   -6.026230061348013E-008
 -3.190000000000000E-002   -7.072032373706214E-008
 -3.180000000000000E-002   -8.014292736573985E-008
 -3.170000000000000E-002   -8.777639192768014E-008
 -3.160000000000000E-002   -9.289772018381336E-008
 -3.150000000000000E-002   -9.488391762666688E-008
 -3.140000000000000E-002   -9.327866024113329E-008
 -3.130000000000000E-002   -8.784892895096447E-008
 -3.120000000000000E-002   -7.862471563230300E-008
 -3.110000000000000E-002   -6.591595773808438E-008
 -3.100000000000000E-002   -5.030303834711229E-008
 -3.090000000000000E-002   -3.259968298931744E-008
 -3.080000000000000E-002   -1.379017495138090E-008
 -3.070000000000000E-002    5.054238228700945E-009
 -3.060000000000000E-002    2.287208828712007E-008
 -3.050000000000000E-002    3.871184408175007E-008
 -3.040000000000000E-002    5.182452995375457E-008
 -3.030000000000000E-002    6.173793260774643E-008
 -3.020000000000000E-002    6.830267019587403E-008
 -3.010000000000000E-002    7.170285906290974E-008
 -3.000000000000000E-002    7.242755627163334E-008
 -2.990000000000000E-002    7.120321071186219E-008
 -2.980000000000000E-002    6.889192108576031E-008
 -2.970000000000000E-002    6.636430031574225E-008
 -2.960000000000000E-002    6.435936836979899E-008
 -2.950000000000000E-002    6.334624098603870E-008
 -2.940000000000000E-002    6.340318367604052E-008
 -2.930000000000000E-002    6.412881701851860E-008
 -2.920000000000000E-002    6.459785032615638E-008
 -2.910000000000000E-002    6.336952675464458E-008
 -2.900000000000000E-002    5.855191181221854E-008
 -2.890000000000000E-002    4.791922181064498E-008
 -2.880000000000000E-002    2.907373844456343E-008
 -2.870000000000000E-002   -3.617147101819987E-010
 -2.860000000000000E-002   -4.253856783349286E-008
 -2.850000000000000E-002   -9.918461900159845E-008
 -2.840000000000000E-002   -1.714340328409292E-007
 -2.830000000000000E-002   -2.597038405581520E-007
 -2.820000000000000E-002   -3.636308965461293E-007
 -2.810000000000000E-002   -4.820781161714628E-007
 -2.800000000000000E-002   -6.132123103025645E-007
 -2.790000000000000E-002   -7.546471119430290E-007
 -2.780000000000000E-002   -9.036388242748386E-007
 -2.770000000000000E-002   -1.057316790804959E-006
 -2.760000000000000E-002   -1.212925104023836E-006
 -2.750000000000000E-002   -1.368051464947884E-006
 -2.740000000000000E-002   -1.520819335154695E-006
 -2.730000000000000E-002   -1.670022967259589E-006
 -2.720000000000000E-002   -1.815190551524276E-006
 -2.710000000000000E-002   -1.956567337675787E-006
 -2.700000000000000E-002   -2.095020227370952E-006
 -2.690000000000000E-002   -2.231872686701888E-006
 -2.680000000000000E-002   -2.368686084468091E-006
 -2.670000000000000E-002   -2.507010835303351E-006
 -2.660000000000000E-002   -2.648133491698363E-006
 -2.650000000000000E-002   -2.792844992828713E-006
 -2.640000000000000E-002   -2.941257013972090E-006
 -2.630000000000000E-002   -3.092685320285229E-006
 -2.620000000000000E-002   -3.245611964808601E-006
 -2.610000000000000E-002   -3.397732913007065E-006
 -2.600000000000000E-002   -3.546082456170958E-006
 -2.590000000000000E-002   -3.687225468672238E-006
 -2.580000000000000E-002   -3.817492592927993E-006
 -2.570000000000000E-002   -3.933233736420154E-006
 -2.560000000000000E-002   -4.031062979167640E-006
 -2.550000000000000E-002   -4.108065739214282E-006
 -2.540000000000000E-002   -4.161945900602578E-006
 -2.530000000000000E-002   -4.191097321618653E-006
 -2.520000000000000E-002   -4.194589728891031E-006
 -2.510000000000000E-002   -4.172071158347068E-006
 -2.500000000000000E-002   -4.123598100037030E-006
 -2.490000000000000E-002   -4.049414590343518E-006
 -2.480000000000000E-002   -3.949699348482709E-006
 -2.470000000000000E-002   -3.824320824200377E-006
 -2.460000000000000E-002   -3.672615985971605E-006
 -2.450000000000000E-002   -3.493230616089686E-006
 -2.440000000000000E-002   -3.284031450453992E-006
 -2.430000000000000E-002   -3.042109045337538E-006
 -2.420000000000000E-002   -2.763866243089916E-006
 -2.410000000000000E-002   -2.445186979996409E-006
 -2.400000000000000E-002   -2.081666093624224E-006
 -2.390000000000000E-002   -1.668872316730371E-006
 -2.380000000000000E-002   -1.202617319244984E-006
 -2.370000000000000E-002   -6.791982943127863E-007
 -2.360000000000000E-002   -9.558275304330128E-008
 -2.350000000000000E-002    5.504888662343961E-007
 -2.340000000000000E-002    1.260490490253149E-006
 -2.330000000000000E-002    2.035202599460029E-006
 -2.320000000000000E-002    2.874899937450878E-006
 -2.310000000000000E-002    3.779605017482219E-006
 -2.300000000000000E-002    4.749412877865072E-006
 -2.290000000000000E-002    5.784819117615033E-006
 -2.280000000000000E-002    6.887044653568494E-006
 -2.270000000000000E-002    8.058309139419585E-006
 -2.260000000000000E-002    9.302035877209976E-006
 -2.250000000000000E-002    1.062295360638517E-005
 -2.240000000000000E-002    1.202711150940799E-005
 -2.230000000000000E-002    1.352176661279064E-005
 -2.220000000000000E-002    1.511520485843939E-005
 -2.210000000000000E-002    1.681648487888381E-005
 -2.200000000000000E-002    1.863514088057742E-005
 -2.190000000000000E-002    2.058089090620267E-005
 -2.180000000000000E-002    2.266337724690450E-005
 -2.170000000000000E-002    2.489196021252201E-005
 -2.160000000000000E-002    2.727560539459009E-005
 -2.150000000000000E-002    2.982287472081372E-005
 -2.140000000000000E-002    3.254201718247230E-005
 -2.130000000000000E-002    3.544115104915447E-005
 -2.120000000000000E-002    3.852856103128879E-005
 -2.110000000000000E-002    4.181298980768204E-005
 -2.100000000000000E-002    4.530401585696921E-005
 -2.090000000000000E-002    4.901236741941600E-005
 -2.080000000000000E-002    5.295023679707747E-005
 -2.070000000000000E-002    5.713149033500489E-005
 -2.060000000000000E-002    6.157182086268969E-005
 -2.050000000000000E-002    6.628880041191298E-005
 -2.040000000000000E-002    7.130181954340150E-005
 -2.030000000000000E-002    7.663197232614776E-005
 -2.020000000000000E-002    8.230187266856780E-005
 -2.010000000000000E-002    8.833543190331253E-005
 -2.000000000000000E-002    9.475761933063410E-005
 -1.990000000000000E-002    1.015942746159218E-004
 -1.980000000000000E-002    1.088719345855061E-004
 -1.970000000000000E-002    1.166177408112867E-004
 -1.960000000000000E-002    1.248594408712621E-004
 -1.950000000000000E-002    1.336254204793423E-004
 -1.940000000000000E-002    1.429448764924767E-004
 -1.930000000000000E-002    1.528480005809112E-004
 -1.920000000000000E-002    1.633662156471266E-004
 -1.910000000000000E-002    1.745324760049504E-004
 -1.900000000000000E-002    1.863815491402503E-004
 -1.890000000000000E-002    1.989502617093241E-004
 -1.880000000000000E-002    2.122777404425528E-004
 -1.870000000000000E-002    2.264056428168357E-004
 -1.860000000000000E-002    2.413782558843039E-004
 -1.850000000000000E-002    2.572426567623126E-004
 -1.840000000000000E-002    2.740487330712842E-004
 -1.830000000000000E-002    2.918493196513597E-004
 -1.820000000000000E-002    3.107000626115981E-004
 -1.810000000000000E-002    3.306595412145936E-004
 -1.800000000000000E-002    3.517891605673372E-004
 -1.790000000000000E-002    3.741532129812138E-004
 -1.780000000000000E-002    3.978188129422333E-004
 -1.770000000000000E-002    4.228559199910164E-004
 -1.760000000000000E-002    4.493374451960475E-004
 -1.750000000000000E-002    4.773391214635219E-004
 -1.740000000000000E-002    5.069397101987237E-004
 -1.730000000000000E-002    5.382209971207445E-004
 -1.720000000000000E-002    5.712679311838190E-004
 -1.710000000000000E-002    6.061687280017391E-004
 -1.700000000000000E-002    6.430150338482489E-004
 -1.690000000000000E-002    6.819022925489296E-004
 -1.680000000000000E-002    7.229297374578718E-004
 -1.670000000000000E-002    7.662008992398178E-004
 -1.660000000000000E-002    8.118237556732326E-004
 -1.650000000000000E-002    8.599113393125018E-004
 -1.640000000000000E-002    9.105819051586296E-004
 -1.630000000000000E-002    9.639594230099626E-004
 -1.620000000000000E-002    1.020173848444708E-003
 -1.610000000000000E-002    1.079361495630461E-003
 -1.600000000000000E-002    1.141665393340160E-003
 -1.590000000000000E-002    1.207235250415739E-003
 -1.580000000000000E-002    1.276227883616607E-003
 -1.570000000000000E-002    1.348806955224023E-003
 -1.560000000000000E-002    1.425143222753221E-003
 -1.550000000000000E-002    1.505414240869498E-003
 -1.540000000000000E-002    1.589804521014593E-003
 -1.530000000000000E-002    1.678505288680123E-003
 -1.520000000000000E-002    1.771714547047222E-003
 -1.510000000000000E-002    1.869637053405093E-003
 -1.500000000000000E-002    1.972484578254793E-003
 -1.490000000000000E-002    2.080476023777730E-003
 -1.480000000000000E-002    2.193838049729794E-003
 -1.470000000000000E-002    2.312805339334029E-003
 -1.460000000000000E-002    2.437620958536662E-003
 -1.450000000000000E-002    2.568537717322977E-003
 -1.440000000000000E-002    2.705817889829094E-003
 -1.430000000000000E-002    2.849734424504777E-003
 -1.420000000000000E-002    3.000571028146813E-003
 -1.410000000000000E-002    3.158623284875663E-003
 -1.400000000000000E-002    3.324198088694473E-003
 -1.390000000000000E-002    3.497614533133971E-003
 -1.380000000000000E-002    3.679203395690481E-003
 -1.370000000000000E-002    3.869307594212846E-003
 -1.360000000000000E-002    4.068281536464103E-003
 -1.350000000000000E-002    4.276491417221373E-003
 -1.340000000000000E-002    4.494314804528601E-003
 -1.330000000000000E-002    4.722140683625300E-003
 -1.320000000000000E-002    4.960369252882960E-003
 -1.310000000000000E-002    5.209412100211779E-003
 -1.300000000000000E-002    5.469692916792819E-003
 -1.290000000000000E-002    5.741648173134647E-003
 -1.280000000000000E-002    6.025725909858054E-003
 -1.270000000000000E-002    6.322388427879087E-003
 -1.260000000000000E-002    6.632111783109936E-003
 -1.250000000000000E-002    6.955387884315288E-003
 -1.240000000000000E-002    7.292723334364754E-003
 -1.230000000000000E-002    7.644641116536815E-003
 -1.220000000000000E-002    8.011680720651546E-003
 -1.210000000000000E-002    8.394398684506166E-003
 -1.200000000000000E-002    8.793368739571473E-003
 -1.190000000000000E-002    9.209181022363606E-003
 -1.180000000000000E-002    9.642442088832096E-003
 -1.170000000000000E-002    1.009377617609879E-002
 -1.160000000000000E-002    1.056382322912148E-002
 -1.150000000000000E-002    1.105323920864097E-002
 -1.140000000000000E-002    1.156269576333036E-002
 -1.130000000000000E-002    1.209288072983523E-002
 -1.120000000000000E-002    1.264449821971370E-002
 -1.110000000000000E-002    1.321826838412982E-002
 -1.100000000000000E-002    1.381492748040917E-002
 -1.090000000000000E-002    1.443522847003786E-002
 -1.080000000000000E-002    1.507994175634559E-002
 -1.070000000000000E-002    1.574985751592992E-002
 -1.060000000000000E-002    1.644578064606211E-002
 -1.050000000000000E-002    1.716853757278017E-002
 -1.040000000000000E-002    1.791897228376619E-002
 -1.030000000000000E-002    1.869794781155213E-002
 -1.020000000000000E-002    1.950634515175757E-002
 -1.010000000000000E-002    2.034506564962348E-002
 -1.000000000000000E-002    2.121502866563785E-002
 -9.899999999999999E-003    2.211717102303864E-002
 -9.800000000000000E-003    2.305244604285036E-002
 -9.699999999999999E-003    2.402182639095886E-002
 -9.599999999999999E-003    2.502630092498470E-002
 -9.500000000000000E-003    2.606687463450522E-002
 -9.399999999999999E-003    2.714456727660273E-002
 -9.299999999999999E-003    2.826041771674956E-002
 -9.200000000000000E-003    2.941547602756309E-002
 -9.099999999999999E-003    3.061081147518454E-002
 -8.999999999999999E-003    3.184750847783142E-002
 -8.900000000000000E-003    3.312666360898075E-002
 -8.799999999999999E-003    3.444939165613826E-002
 -8.699999999999999E-003    3.581681932462959E-002
 -8.600000000000000E-003    3.723008753098669E-002
 -8.499999999999999E-003    3.869035343684373E-002
 -8.399999999999999E-003    4.019878197328236E-002
 -8.300000000000000E-003    4.175655497226786E-002
 -8.199999999999999E-003    4.336486056779075E-002
 -8.100000000000000E-003    4.502490221117817E-002
 -8.000000000000000E-003    4.673789099317059E-002
 -7.899999999999999E-003    4.850504292777089E-002
 -7.800000000000000E-003    5.032758315627119E-002
 -7.699999999999999E-003    5.220674327328457E-002
 -7.599999999999999E-003    5.414376242389050E-002
 -7.499999999999999E-003    5.613988423766918E-002
 -7.399999999999999E-003    5.819635464003468E-002
 -7.299999999999999E-003    6.031442267533104E-002
 -7.199999999999999E-003    6.249533912917661E-002
 -7.100000000000000E-003    6.474035597166262E-002
 -6.999999999999999E-003    6.705072494669483E-002
 -6.899999999999999E-003    6.942769377618684E-002
 -6.800000000000000E-003    7.187250330291120E-002
 -6.699999999999999E-003    7.438639621866378E-002
 -6.599999999999999E-003    7.697060491706502E-002
 -6.499999999999999E-003    7.962635280859620E-002
 -6.399999999999999E-003    8.235484764391970E-002
 -6.299999999999999E-003    8.515728727054712E-002
 -6.199999999999999E-003    8.803486273664472E-002
 -6.100000000000000E-003    9.098874229855480E-002
 -5.999999999999999E-003    9.402007635659994E-002
 -5.899999999999999E-003    9.713000069081909E-002
 -5.800000000000000E-003    0.100319618831484     
 -5.699999999999999E-003    0.103590023263748     
 -5.599999999999999E-003    0.106942276913030     
 -5.499999999999999E-003    0.110377420569514     
 -5.399999999999999E-003    0.113896462523385     
 -5.299999999999999E-003    0.117500374302784     
 -5.199999999999999E-003    0.121190104886182     
 -5.099999999999999E-003    0.124966563203109     
 -4.999999999999999E-003    0.128830615705164     
 -4.899999999999999E-003    0.132783088883499     
 -4.799999999999999E-003    0.136824763160536     
 -4.699999999999999E-003    0.140956378399720     
 -4.599999999999999E-003    0.145178609581632     
 -4.499999999999999E-003    0.149492095523953     
 -4.399999999999999E-003    0.153897417517266     
 -4.299999999999999E-003    0.158395086324586     
 -4.199999999999999E-003    0.162985563446070     
 -4.099999999999999E-003    0.167669256595788     
 -3.999999999999999E-003    0.172446481718543     
 -3.899999999999999E-003    0.177317506507521     
 -3.799999999999999E-003    0.182282528537523     
 -3.699999999999999E-003    0.187341668928334     
 -3.599999999999999E-003    0.192494978312149     
 -3.499999999999999E-003    0.197742432661336     
 -3.399999999999999E-003    0.203083900672705     
 -3.299999999999999E-003    0.208519189421497     
 -3.199999999999999E-003    0.214048007586145     
 -3.099999999999999E-003    0.219669992603156     
 -2.999999999999999E-003    0.225384677606111     
 -2.899999999999999E-003    0.231191483061983     
 -2.799999999999999E-003    0.237089728924054     
 -2.699999999999999E-003    0.243078651563559     
 -2.599999999999999E-003    0.249157373987400     
 -2.499999999999999E-003    0.255324915969543     
 -2.399999999999999E-003    0.261580149945176     
 -2.299999999999999E-003    0.267921880043293     
 -2.199999999999999E-003    0.274348794965455     
 -2.099999999999999E-003    0.280859413670415     
 -1.999999999999999E-003    0.287452193002450     
 -1.899999999999999E-003    0.294125415198114     
 -1.799999999999999E-003    0.300877289250656     
 -1.699999999999999E-003    0.307705853065974     
 -1.599999999999999E-003    0.314609027787681     
 -1.499999999999999E-003    0.321584599739802     
 -1.399999999999999E-003    0.328630244851195     
 -1.299999999999999E-003    0.335743456538605     
 -1.199999999999999E-003    0.342921611775478     
 -1.099999999999999E-003    0.350161952327066     
 -9.999999999999989E-004    0.357461567897147     
 -8.999999999999990E-004    0.364817375283120     
 -7.999999999999990E-004    0.372226184984192     
 -6.999999999999989E-004    0.379684636050196     
 -5.999999999999990E-004    0.387189223164410     
 -4.999999999999989E-004    0.394736271267537     
 -3.999999999999989E-004    0.402321986007887     
 -2.999999999999989E-004    0.409942401920452     
 -1.999999999999989E-004    0.417593389842791     
 -9.999999999999892E-005    0.425270705393310     
  1.084202172485504E-018    0.432969911480234     
  1.000000000000011E-004    0.440686441163446     
  2.000000000000011E-004    0.448415582070855     
  3.000000000000011E-004    0.456152414304096     
  4.000000000000011E-004    0.463891916935353     
  5.000000000000011E-004    0.471628900115476     
  6.000000000000011E-004    0.479358022735723     
  7.000000000000011E-004    0.487073780814286     
  8.000000000000011E-004    0.494770512564658     
  9.000000000000012E-004    0.502442414172713     
  1.000000000000001E-003    0.510083578757651     
  1.100000000000001E-003    0.517687883545896     
  1.200000000000001E-003    0.525249078080919     
  1.300000000000001E-003    0.532760779285071     
  1.400000000000001E-003    0.540216513231177     
  1.500000000000001E-003    0.547609573812927     
  1.600000000000001E-003    0.554933192974178     
  1.700000000000001E-003    0.562180442655598     
  1.800000000000001E-003    0.569344290364751     
  1.900000000000001E-003    0.576417544986877     
  2.000000000000001E-003    0.583392901507072     
  2.100000000000001E-003    0.590262973475467     
  2.200000000000001E-003    0.597020246826235     
  2.300000000000001E-003    0.603657078800926     
  2.400000000000001E-003    0.610165714540627     
  2.500000000000001E-003    0.616538357704910     
  2.600000000000001E-003    0.622767039494791     
  2.700000000000001E-003    0.628843787299685     
  2.800000000000001E-003    0.634760482409210     
  2.900000000000001E-003    0.640508966858374     
  3.000000000000001E-003    0.646081005012566     
  3.100000000000001E-003    0.651468345262529     
  3.200000000000001E-003    0.656662593693362     
  3.300000000000001E-003    0.661655370711970     
  3.400000000000001E-003    0.666438231474784     
  3.500000000000001E-003    0.671002746488395     
  3.600000000000001E-003    0.675340401294758     
  3.700000000000001E-003    0.679442713215364     
  3.800000000000001E-003    0.683301132395960     
  3.900000000000001E-003    0.686907135528548     
  4.000000000000001E-003    0.690252233010464     
  4.100000000000001E-003    0.693327898566287     
  4.200000000000001E-003    0.696125665365111     
  4.300000000000001E-003    0.698637132370499     
  4.400000000000001E-003    0.700853817363981     
  4.500000000000001E-003    0.702767427038315     
  4.600000000000002E-003    0.704369694485325     
  4.700000000000001E-003    0.705652372713935     
  4.800000000000001E-003    0.706607313725397     
  4.900000000000002E-003    0.707226528091043     
  5.000000000000001E-003    0.707502058678962     
  5.100000000000001E-003    0.707426096071703     
  5.200000000000001E-003    0.706990936313365     
  5.300000000000002E-003    0.706189013457857     
  5.400000000000001E-003    0.705012905584643     
  5.500000000000001E-003    0.703455353935401     
  5.600000000000002E-003    0.701509255849386     
  5.700000000000001E-003    0.699167652466255     
  5.800000000000001E-003    0.696423804184164     
  5.900000000000002E-003    0.693271156974752     
  6.000000000000001E-003    0.689703314223366     
  6.100000000000001E-003    0.685714155853895     
  6.200000000000002E-003    0.681297766968113     
  6.300000000000002E-003    0.676448463136971     
  6.400000000000001E-003    0.671160816651408     
  6.500000000000001E-003    0.665429649311115     
  6.600000000000002E-003    0.659249997498969     
  6.700000000000001E-003    0.652617327909614     
  6.800000000000001E-003    0.645527214308782     
  6.900000000000002E-003    0.637975653013030     
  7.000000000000001E-003    0.629958818632325     
  7.100000000000001E-003    0.621473383080066     
  7.200000000000002E-003    0.612516220794720     
  7.300000000000002E-003    0.603084545371700     
  7.400000000000001E-003    0.593175931212845     
  7.500000000000001E-003    0.582788295304078     
  7.600000000000002E-003    0.571919922448598     
  7.700000000000001E-003    0.560569429256810     
  7.800000000000001E-003    0.548735825887278     
  7.900000000000001E-003    0.536418498475097     
  8.000000000000002E-003    0.523617226033682     
  8.100000000000001E-003    0.510332204900437     
  8.200000000000001E-003    0.496563973033990     
  8.300000000000002E-003    0.482313525553228     
  8.400000000000001E-003    0.467582257662316     
  8.500000000000002E-003    0.452371964333710     
  8.600000000000002E-003    0.436684902350100     
  8.700000000000001E-003    0.420523722376520     
  8.800000000000002E-003    0.403891533413429     
  8.900000000000002E-003    0.386791853061211     
  9.000000000000001E-003    0.369228624703638     
  9.100000000000002E-003    0.351206279737873     
  9.200000000000002E-003    0.332729669833093     
  9.300000000000001E-003    0.313804061304186     
  9.400000000000002E-003    0.294435185277859     
  9.500000000000001E-003    0.274629215670801     
  9.600000000000001E-003    0.254392785850488     
  9.700000000000002E-003    0.233732956688037     
  9.800000000000001E-003    0.212657225198830     
  9.900000000000001E-003    0.191173565421514     
  1.000000000000000E-002    0.169290353981251     
  1.010000000000000E-002    0.147016437572725     
  1.020000000000000E-002    0.124361085772662     
  1.030000000000000E-002    0.101334009379607     
  1.040000000000000E-002    7.794533036149898E-002
  1.050000000000000E-002    5.420561293015266E-002
  1.060000000000000E-002    3.012584387948350E-002
  1.070000000000000E-002    5.717423224617886E-003
  1.080000000000000E-002   -1.900785659183372E-002
  1.090000000000000E-002   -4.403778690080164E-002
  1.100000000000000E-002   -6.935976917217351E-002
  1.110000000000000E-002   -9.496082525226504E-002
  1.120000000000000E-002   -0.120827602583448     
  1.130000000000000E-002   -0.146946378103114     
  1.140000000000000E-002   -0.173303039095772     
  1.150000000000000E-002   -0.199883155053590     
  1.160000000000000E-002   -0.226671951494223     
  1.170000000000000E-002   -0.253654309398546     
  1.180000000000000E-002   -0.280814789485290     
  1.190000000000000E-002   -0.308137660429487     
  1.200000000000000E-002   -0.335606897298631     
  1.210000000000000E-002   -0.363206167741814     
  1.220000000000000E-002   -0.390918891064378     
  1.230000000000000E-002   -0.418728240781389     
  1.240000000000000E-002   -0.446617122565594     
  1.250000000000000E-002   -0.474568211992602     
  1.260000000000000E-002   -0.502563982386163     
  1.270000000000000E-002   -0.530586726597088     
  1.280000000000000E-002   -0.558618561974421     
  1.290000000000000E-002   -0.586641412307005     
  1.300000000000000E-002   -0.614637090825206     
  1.310000000000000E-002   -0.642587211881070     
  1.320000000000000E-002   -0.670473292680976     
  1.330000000000000E-002   -0.698276818318577     
  1.340000000000000E-002   -0.725979130359864     
  1.350000000000000E-002   -0.753561493539014     
  1.360000000000000E-002   -0.781005156192271     
  1.370000000000000E-002   -0.808291329913855     
  1.380000000000000E-002   -0.835401197343390     
  1.390000000000000E-002   -0.862315903120426     
  1.400000000000000E-002   -0.889016688917956     
  1.410000000000000E-002   -0.915484810393219     
  1.420000000000000E-002   -0.941701552270312     
  1.430000000000000E-002   -0.967648352622739     
  1.440000000000000E-002   -0.993306687362520     
  1.450000000000000E-002    -1.01865811903286     
  1.460000000000000E-002    -1.04368442245600     
  1.470000000000000E-002    -1.06836750915056     
  1.480000000000000E-002    -1.09268944298237     
  1.490000000000000E-002    -1.11663248600308     
  1.500000000000000E-002    -1.14017909401993     
  1.510000000000000E-002    -1.16331190082387     
  1.520000000000000E-002    -1.18601391870678     
  1.530000000000000E-002    -1.20826829508171     
  1.540000000000000E-002    -1.23005850274070     
  1.550000000000000E-002    -1.25136827348035     
  1.560000000000000E-002    -1.27218164444786     
  1.570000000000000E-002    -1.29248306595304     
  1.580000000000000E-002    -1.31225725582509     
  1.590000000000000E-002    -1.33148923773549     
  1.600000000000000E-002    -1.35016444111738     
  1.610000000000000E-002    -1.36826874588616     
  1.620000000000000E-002    -1.38578838158951     
  1.630000000000000E-002    -1.40271000878450     
  1.640000000000000E-002    -1.41902081574030     
  1.650000000000000E-002    -1.43470833495688     
  1.660000000000000E-002    -1.44976050275422     
  1.670000000000000E-002    -1.46416585454949     
  1.680000000000000E-002    -1.47791327626529     
  1.690000000000000E-002    -1.49099231741061     
  1.700000000000000E-002    -1.50339294840094     
  1.710000000000000E-002    -1.51510573808870     
  1.720000000000000E-002    -1.52612156534809     
  1.730000000000000E-002    -1.53643207666354     
  1.740000000000000E-002    -1.54602939287122     
  1.750000000000000E-002    -1.55490606998717     
  1.760000000000000E-002    -1.56305548988914     
  1.770000000000000E-002    -1.57047124344660     
  1.780000000000000E-002    -1.57714778305530     
  1.790000000000000E-002    -1.58307998615526     
  1.800000000000000E-002    -1.58826349426615     
  1.810000000000000E-002    -1.59269433157574     
  1.820000000000000E-002    -1.59636919444154     
  1.830000000000000E-002    -1.59928540549952     
  1.840000000000000E-002    -1.60144084775389     
  1.850000000000000E-002    -1.60283409379618     
  1.860000000000000E-002    -1.60346422944434     
  1.870000000000000E-002    -1.60333090449503     