 -4.000000000000000E-002    0.000000000000000E+000
 -3.990000000000000E-002    0.000000000000000E+000
 -3.980000000000000E-002    0.000000000000000E+000
 -3.970000000000000E-002    0.000000000000000E+000
 -3.960000000000000E-002    0.000000000000000E+000
 -3.950000000000000E-002    0.000000000000000E+000
 -3.940000000000000E-002    0.000000000000000E+000
 -3.930000000000000E-002    0.000000000000000E+000
 -3.920000000000000E-002    0.000000000000000E+000
 -3.910000000000000E-002    0.000000000000000E+000
 -3.900000000000000E-002    0.000000000000000E+000
 -3.890000000000000E-002    0.000000000000000E+000
 -3.880000000000000E-002    0.000000000000000E+000
 -3.870000000000000E-002    0.000000000000000E+000
 -3.860000000000000E-002    0.000000000000000E+000
 -3.850000000000000E-002    0.000000000000000E+000
 -3.840000000000000E-002    0.000000000000000E+000
 -3.830000000000000E-002    0.000000000000000E+000
 -3.820000000000000E-002    0.000000000000000E+000
 -3.810000000000000E-002    0.000000000000000E+000
 -3.800000000000000E-002    0.000000000000000E+000
 -3.790000000000000E-002    0.000000000000000E+000
 -3.780000000000000E-002    0.000000000000000E+000
 -3.770000000000000E-002    0.000000000000000E+000
 -3.760000000000000E-002    0.000000000000000E+000
 -3.750000000000000E-002    0.000000000000000E+000
 -3.740000000000000E-002    0.000000000000000E+000
 -3.730000000000000E-002    0.000000000000000E+000
 -3.720000000000000E-002    0.000000000000000E+000
 -3.710000000000000E-002    0.000000000000000E+000
 -3.700000000000000E-002    0.000000000000000E+000
 -3.690000000000000E-002    0.000000000000000E+000
 -3.680000000000000E-002    0.000000000000000E+000
 -3.670000000000000E-002    0.000000000000000E+000
 -3.660000000000000E-002    0.000000000000000E+000
 -3.650000000000000E-002    0.000000000000000E+000
 -3.640000000000000E-002    0.000000000000000E+000
 -3.630000000000000E-002    0.000000000000000E+000
 -3.620000000000000E-002    0.000000000000000E+000
 -3.610000000000000E-002    0.000000000000000E+000
 -3.600000000000000E-002    0.000000000000000E+000
 -3.590000000000000E-002    0.000000000000000E+000
 -3.580000000000000E-002    0.000000000000000E+000
 -3.570000000000000E-002    0.000000000000000E+000
 -3.560000000000000E-002    0.000000000000000E+000
 -3.550000000000000E-002    0.000000000000000E+000
 -3.540000000000000E-002    0.000000000000000E+000
 -3.530000000000000E-002    0.000000000000000E+000
 -3.520000000000000E-002    0.000000000000000E+000
 -3.510000000000000E-002    0.000000000000000E+000
 -3.500000000000000E-002    0.000000000000000E+000
 -3.490000000000000E-002    0.000000000000000E+000
 -3.480000000000000E-002    0.000000000000000E+000
 -3.470000000000000E-002    0.000000000000000E+000
 -3.460000000000000E-002    0.000000000000000E+000
 -3.450000000000000E-002    0.000000000000000E+000
 -3.440000000000000E-002    0.000000000000000E+000
 -3.430000000000000E-002    0.000000000000000E+000
 -3.420000000000000E-002    0.000000000000000E+000
 -3.410000000000000E-002    0.000000000000000E+000
 -3.400000000000000E-002    0.000000000000000E+000
 -3.390000000000000E-002    0.000000000000000E+000
 -3.380000000000000E-002    0.000000000000000E+000
 -3.370000000000000E-002    0.000000000000000E+000
 -3.360000000000000E-002    0.000000000000000E+000
 -3.350000000000000E-002    0.000000000000000E+000
 -3.340000000000000E-002    0.000000000000000E+000
 -3.330000000000000E-002    0.000000000000000E+000
 -3.320000000000000E-002    0.000000000000000E+000
 -3.310000000000000E-002    0.000000000000000E+000
 -3.300000000000000E-002    0.000000000000000E+000
 -3.290000000000000E-002    0.000000000000000E+000
 -3.280000000000000E-002    0.000000000000000E+000
 -3.270000000000000E-002    0.000000000000000E+000
 -3.260000000000000E-002    0.000000000000000E+000
 -3.250000000000000E-002    0.000000000000000E+000
 -3.240000000000000E-002    0.000000000000000E+000
 -3.230000000000000E-002    0.000000000000000E+000
 -3.220000000000000E-002    0.000000000000000E+000
 -3.210000000000000E-002    0.000000000000000E+000
 -3.200000000000000E-002    0.000000000000000E+000
 -3.190000000000000E-002    0.000000000000000E+000
 -3.180000000000000E-002    0.000000000000000E+000
 -3.170000000000000E-002    0.000000000000000E+000
 -3.160000000000000E-002    0.000000000000000E+000
 -3.150000000000000E-002    0.000000000000000E+000
 -3.140000000000000E-002    0.000000000000000E+000
 -3.130000000000000E-002    0.000000000000000E+000
 -3.120000000000000E-002    0.000000000000000E+000
 -3.110000000000000E-002    0.000000000000000E+000
 -3.100000000000000E-002    0.000000000000000E+000
 -3.090000000000000E-002    0.000000000000000E+000
 -3.080000000000000E-002    0.000000000000000E+000
 -3.070000000000000E-002    0.000000000000000E+000
 -3.060000000000000E-002    0.000000000000000E+000
 -3.050000000000000E-002    0.000000000000000E+000
 -3.040000000000000E-002    0.000000000000000E+000
 -3.030000000000000E-002    0.000000000000000E+000
 -3.020000000000000E-002    0.000000000000000E+000
 -3.010000000000000E-002    0.000000000000000E+000
 -3.000000000000000E-002    0.000000000000000E+000
 -2.990000000000000E-002    0.000000000000000E+000
 -2.980000000000000E-002    0.000000000000000E+000
 -2.970000000000000E-002    0.000000000000000E+000
 -2.960000000000000E-002    0.000000000000000E+000
 -2.950000000000000E-002    0.000000000000000E+000
 -2.940000000000000E-002    0.000000000000000E+000
 -2.930000000000000E-002    0.000000000000000E+000
 -2.920000000000000E-002    0.000000000000000E+000
 -2.910000000000000E-002    0.000000000000000E+000
 -2.900000000000000E-002    0.000000000000000E+000
 -2.890000000000000E-002    0.000000000000000E+000
 -2.880000000000000E-002    0.000000000000000E+000
 -2.870000000000000E-002    0.000000000000000E+000
 -2.860000000000000E-002    0.000000000000000E+000
 -2.850000000000000E-002    0.000000000000000E+000
 -2.840000000000000E-002    0.000000000000000E+000
 -2.830000000000000E-002    0.000000000000000E+000
 -2.820000000000000E-002    0.000000000000000E+000
 -2.810000000000000E-002    0.000000000000000E+000
 -2.800000000000000E-002    0.000000000000000E+000
 -2.790000000000000E-002    0.000000000000000E+000
 -2.780000000000000E-002    0.000000000000000E+000
 -2.770000000000000E-002    0.000000000000000E+000
 -2.760000000000000E-002    0.000000000000000E+000
 -2.750000000000000E-002    0.000000000000000E+000
 -2.740000000000000E-002    0.000000000000000E+000
 -2.730000000000000E-002    0.000000000000000E+000
 -2.720000000000000E-002    0.000000000000000E+000
 -2.710000000000000E-002    0.000000000000000E+000
 -2.700000000000000E-002    0.000000000000000E+000
 -2.690000000000000E-002    0.000000000000000E+000
 -2.680000000000000E-002    0.000000000000000E+000
 -2.670000000000000E-002    0.000000000000000E+000
 -2.660000000000000E-002    0.000000000000000E+000
 -2.650000000000000E-002    0.000000000000000E+000
 -2.640000000000000E-002    0.000000000000000E+000
 -2.630000000000000E-002    0.000000000000000E+000
 -2.620000000000000E-002    0.000000000000000E+000
 -2.610000000000000E-002    0.000000000000000E+000
 -2.600000000000000E-002    0.000000000000000E+000
 -2.590000000000000E-002    0.000000000000000E+000
 -2.580000000000000E-002    0.000000000000000E+000
 -2.570000000000000E-002    0.000000000000000E+000
 -2.560000000000000E-002    0.000000000000000E+000
 -2.550000000000000E-002    0.000000000000000E+000
 -2.540000000000000E-002    0.000000000000000E+000
 -2.530000000000000E-002    0.000000000000000E+000
 -2.520000000000000E-002    0.000000000000000E+000
 -2.510000000000000E-002    3.941889679328290E-048
 -2.500000000000000E-002    3.941889679328290E-048
 -2.490000000000000E-002    3.941889679328290E-048
 -2.480000000000000E-002    0.000000000000000E+000
 -2.470000000000000E-002   -1.985282218793826E-047
 -2.460000000000000E-002   -4.758942373453310E-047
 -2.450000000000000E-002   -7.886174871541038E-047
 -2.440000000000000E-002   -1.140759633756160E-046
 -2.430000000000000E-002   -1.851729247405527E-046
 -2.420000000000000E-002   -1.881706461350097E-046
 -2.410000000000000E-002   -1.475323714707790E-046
 -2.400000000000000E-002    1.586601376702944E-047
 -2.390000000000000E-002    4.976616250702471E-046
 -2.380000000000000E-002    1.144365935162152E-045
 -2.370000000000000E-002    2.821597483905094E-045
 -2.360000000000000E-002    4.407004256171594E-045
 -2.350000000000000E-002    5.959865508074942E-045
 -2.340000000000000E-002    7.027828840314815E-045
 -2.330000000000000E-002    7.195660664790269E-045
 -2.320000000000000E-002    4.389080240734525E-045
 -2.310000000000000E-002   -2.178749960712398E-045
 -2.300000000000000E-002   -1.319717048265867E-044
 -2.290000000000000E-002   -2.903973656669816E-044
 -2.280000000000000E-002   -4.915254511009506E-044
 -2.270000000000000E-002   -7.206940995181084E-044
 -2.260000000000000E-002   -9.445253541406638E-044
 -2.250000000000000E-002   -1.094083285798962E-043
 -2.240000000000000E-002   -1.086112762886954E-043
 -2.230000000000000E-002   -7.895404638446540E-044
 -2.220000000000000E-002   -8.468422396898917E-045
 -2.210000000000000E-002    1.147888460800512E-043
 -2.200000000000000E-002    2.984173196211737E-043
 -2.190000000000000E-002    5.374367141155760E-043
 -2.180000000000000E-002    8.111340265613638E-043
 -2.170000000000000E-002    1.075017789591947E-042
 -2.160000000000000E-002    1.255977272393910E-042
 -2.150000000000000E-002    1.251492028590631E-042
 -2.140000000000000E-002    9.381856522981257E-043
 -2.130000000000000E-002    1.853414895212667E-043
 -2.120000000000000E-002   -1.116301134427177E-042
 -2.110000000000000E-002   -3.012823734378957E-042
 -2.100000000000000E-002   -5.432811354135454E-042
 -2.090000000000000E-002   -8.131567489991005E-042
 -2.080000000000000E-002   -1.063679699206786E-041
 -2.070000000000000E-002   -1.221733514186988E-041
 -2.060000000000000E-002   -1.189768073679945E-041
 -2.050000000000000E-002   -8.541180181036525E-042
 -2.040000000000000E-002   -1.017992322972168E-042
 -2.030000000000000E-002    1.152022506072341E-041
 -2.020000000000000E-002    2.926016156754738E-041
 -2.010000000000000E-002    5.127571265645321E-041
 -2.000000000000000E-002    7.506097990288010E-041
 -1.990000000000000E-002    9.615541274071798E-041
 -1.980000000000000E-002    1.079988992788013E-040
 -1.970000000000000E-002    1.021832599545591E-040
 -1.960000000000000E-002    6.928519126599407E-041
 -1.950000000000000E-002    4.195160053486514E-043
 -1.940000000000000E-002   -1.104166339534906E-040
 -1.930000000000000E-002   -2.632918842061265E-040
 -1.920000000000000E-002   -4.488538974444455E-040
 -1.910000000000000E-002   -6.449527177758005E-040
 -1.900000000000000E-002   -8.141730467282855E-040
 -1.890000000000000E-002   -9.033397400897848E-040
 -1.880000000000000E-002   -8.461981886888532E-040
 -1.870000000000000E-002   -5.704395563408341E-040
 -1.860000000000000E-002   -9.938622508974575E-042
 -1.850000000000000E-002    8.775801486762846E-040
 -1.840000000000000E-002    2.088279374857446E-039
 -1.830000000000000E-002    3.547596466062413E-039
 -1.820000000000000E-002    5.087194192311627E-039
 -1.810000000000000E-002    6.429115825700239E-039
 -1.800000000000000E-002    7.184233864286120E-039
 -1.790000000000000E-002    6.872778740644956E-039
 -1.780000000000000E-002    4.974229069701189E-039
 -1.770000000000000E-002    1.011594803285128E-039
 -1.760000000000000E-002   -5.329270520759135E-039
 -1.750000000000000E-002   -1.405134523733283E-038
 -1.740000000000000E-002   -2.468391283081073E-038
 -1.730000000000000E-002   -3.613076661897719E-038
 -1.720000000000000E-002   -4.656428652376891E-038
 -1.710000000000000E-002   -5.340877621305717E-038
 -1.700000000000000E-002   -5.346049180062969E-038
 -1.690000000000000E-002   -4.318835514202276E-038
 -1.680000000000000E-002   -1.924634261045343E-038
 -1.670000000000000E-002    2.079666865329656E-038
 -1.660000000000000E-002    7.754207932925572E-038
 -1.650000000000000E-002    1.487439019697650E-037
 -1.640000000000000E-002    2.283284739598324E-037
 -1.630000000000000E-002    3.056506744641886E-037
 -1.620000000000000E-002    3.652357800945911E-037
 -1.610000000000000E-002    3.872838557672599E-037
 -1.600000000000000E-002    3.492041422933538E-037
 -1.590000000000000E-002    2.283856951265474E-037
 -1.580000000000000E-002    6.283597331259803E-039
 -1.570000000000000E-002   -3.262972639478343E-037
 -1.560000000000000E-002   -7.631064027491368E-037
 -1.550000000000000E-002   -1.276245227540033E-036
 -1.540000000000000E-002   -1.810905880668756E-036
 -1.530000000000000E-002   -2.282412968032334E-036
 -1.520000000000000E-002   -2.577149304538170E-036
 -1.510000000000000E-002   -2.558990621097275E-036
 -1.500000000000000E-002   -2.082660054264222E-036
 -1.490000000000000E-002   -1.014847606746581E-036
 -1.480000000000000E-002    7.370066877792811E-037
 -1.470000000000000E-002    3.189753465350651E-036
 -1.460000000000000E-002    6.246610282122855E-036
 -1.450000000000000E-002    9.661471457527449E-036
 -1.440000000000000E-002    1.301261535949906E-035
 -1.430000000000000E-002    1.569460303233066E-035
 -1.420000000000000E-002    1.693804848478237E-035
 -1.410000000000000E-002    1.586648984698301E-035
 -1.400000000000000E-002    1.159745421451750E-035
 -1.390000000000000E-002    3.390372675707409E-036
 -1.380000000000000E-002   -9.162805664490221E-036
 -1.370000000000000E-002   -2.591766954959860E-035
 -1.360000000000000E-002   -4.595248318518596E-035
 -1.350000000000000E-002   -6.737462979017560E-035
 -1.340000000000000E-002   -8.720539044321716E-035
 -1.330000000000000E-002   -1.013977238644730E-034
 -1.320000000000000E-002   -1.050432019579177E-034
 -1.310000000000000E-002   -9.281669186134545E-035
 -1.300000000000000E-002   -5.968829861850824E-035
 -1.290000000000000E-002   -1.899074761156099E-036
 -1.280000000000000E-002    8.184931091269828E-035
 -1.270000000000000E-002    1.890995823363223E-034
 -1.260000000000000E-002    3.124119092798797E-034
 -1.250000000000000E-002    4.384422291841558E-034
 -1.240000000000000E-002    5.476130552478865E-034
 -1.230000000000000E-002    6.146862965992570E-034
 -1.220000000000000E-002    6.105264713012696E-034
 -1.210000000000000E-002    5.052629076065624E-034
 -1.200000000000000E-002    2.729107364069930E-034
 -1.190000000000000E-002   -1.027097587829254E-034
 -1.180000000000000E-002   -6.212031614713242E-034
 -1.170000000000000E-002   -1.258752378107997E-033
 -1.160000000000000E-002   -1.962300555213820E-033
 -1.150000000000000E-002   -2.646146642788372E-033
 -1.140000000000000E-002   -3.192496376372377E-033
 -1.130000000000000E-002   -3.457476045805629E-033
 -1.120000000000000E-002   -3.283811691840214E-033
 -1.110000000000000E-002   -2.520756492319958E-033
 -1.100000000000000E-002   -1.050877743059353E-033
 -1.090000000000000E-002    1.177943208240723E-033
 -1.080000000000000E-002    4.118457842520829E-033
 -1.070000000000000E-002    7.592628578665314E-033
 -1.060000000000000E-002    1.126889470547967E-032
 -1.050000000000000E-002    1.465507737180396E-032
 -1.040000000000000E-002    1.711395838625046E-032
 -1.030000000000000E-002    1.790755753291597E-032
 -1.020000000000000E-002    1.627381858431644E-032
 -1.010000000000000E-002    1.153559622086190E-032
 -1.000000000000000E-002    3.236733463020428E-033
 -9.899999999999999E-003   -8.706114271158826E-033
 -9.800000000000000E-003   -2.385374678286902E-032
 -9.699999999999999E-003   -4.112061747739551E-032
 -9.599999999999999E-003   -5.870511480614102E-032
 -9.500000000000000E-003   -7.410357225271221E-032
 -9.399999999999999E-003   -8.423504943695063E-032
 -9.299999999999999E-003   -8.569633603317765E-032
 -9.200000000000000E-003   -7.515350695376974E-032
 -9.099999999999999E-003   -4.985814758278981E-032
 -8.999999999999999E-003   -8.253437513944368E-033
 -8.900000000000000E-003    4.938888819055435E-032
 -8.799999999999999E-003    1.203840141125349E-031
 -8.699999999999999E-003    1.992041654758040E-031
 -8.600000000000000E-003    2.773158664835872E-031
 -8.499999999999999E-003    3.433940524270857E-031
 -8.399999999999999E-003    3.840030698133892E-031
 -8.300000000000000E-003    3.847966216508215E-031
 -8.199999999999999E-003    3.322309884486923E-031
 -8.100000000000000E-003    2.157126432463105E-031
 -8.000000000000000E-003    3.001719843449273E-032
 -7.899999999999999E-003   -2.222701870789095E-031
 -7.800000000000000E-003   -5.286198879023757E-031
 -7.699999999999999E-003   -8.651110225020636E-031
 -7.599999999999999E-003   -1.196074760717863E-030
 -7.499999999999999E-003   -1.475202150290662E-030
 -7.399999999999999E-003   -1.648404997911336E-030
 -7.299999999999999E-003   -1.658573193675378E-030
 -7.199999999999999E-003   -1.452163887589856E-030
 -7.100000000000000E-003   -9.873077380703232E-031
 -6.999999999999999E-003   -2.428292183825324E-031
 -6.899999999999999E-003    7.727010490513976E-031
 -6.800000000000000E-003    2.013023777154180E-030
 -6.699999999999999E-003    3.388675250647601E-030
 -6.599999999999999E-003    4.765291565093507E-030
 -6.499999999999999E-003    5.967046649754721E-030
 -6.399999999999999E-003    6.786279846656694E-030
 -6.299999999999999E-003    6.999920948408052E-030
 -6.199999999999999E-003    6.392677499797567E-030
 -6.100000000000000E-003    4.786128253461682E-030
 -5.999999999999999E-003    2.071916844077786E-030
 -5.899999999999999E-003   -1.753753263726019E-030
 -5.800000000000000E-003   -6.558093139287415E-030
 -5.699999999999999E-003   -1.204674242416217E-029
 -5.599999999999999E-003   -1.775089149161793E-029
 -5.499999999999999E-003   -2.303167660377766E-029
 -5.399999999999999E-003   -2.710645232943740E-029
 -5.299999999999999E-003   -2.910042913551206E-029
 -5.199999999999999E-003   -2.812511213719008E-029
 -5.099999999999999E-003   -2.338227834083105E-029
 -4.999999999999999E-003   -1.428879686742854E-029
 -4.899999999999999E-003   -6.136298829936174E-031
 -4.799999999999999E-003    1.738584682307988E-029
 -4.699999999999999E-003    3.884491038480113E-029
 -4.599999999999999E-003    6.220984242410051E-029
 -4.499999999999999E-003    8.521517775734095E-029
 -4.399999999999999E-003    1.049409102489989E-028
 -4.299999999999999E-003    1.179676686493146E-028
 -4.199999999999999E-003    1.206412775010912E-028
 -4.099999999999999E-003    1.094480933350130E-028
 -3.999999999999999E-003    8.148925704818446E-029
 -3.899999999999999E-003    3.502553857217632E-029
 -3.799999999999999E-003   -2.995291909842413E-029
 -3.699999999999999E-003   -1.111954036362403E-028
 -3.599999999999999E-003   -2.037762183159924E-028
 -3.499999999999999E-003   -2.998847881619243E-028
 -3.399999999999999E-003   -3.889090831290493E-028
 -3.299999999999999E-003   -4.578914877546819E-028
 -3.199999999999999E-003   -4.924131890497423E-028
 -3.099999999999999E-003   -4.779249892782348E-028
 -2.999999999999999E-003   -4.014935240316794E-028
 -2.899999999999999E-003   -2.538669104588315E-028
 -2.799999999999999E-003   -3.169854220056282E-029
 -2.699999999999999E-003    2.603025696445579E-028
 -2.599999999999999E-003    6.075825001093424E-028
 -2.499999999999999E-003    9.846416110595630E-028
 -2.399999999999999E-003    1.354956043818034E-027
 -2.299999999999999E-003    1.672224535499767E-027
 -2.199999999999999E-003    1.883162197808280E-027
 -2.099999999999999E-003    1.931936869058091E-027
 -1.999999999999999E-003    1.766164846902440E-027
 -1.899999999999999E-003    1.344169844631292E-027
 -1.799999999999999E-003    6.429739119909180E-028
 -1.699999999999999E-003   -3.337455327329854E-028
 -1.599999999999999E-003   -1.548696587921165E-027
 -1.499999999999999E-003   -2.926116739722990E-027
 -1.399999999999999E-003   -4.350162769142063E-027
 -1.299999999999999E-003   -5.667601057449082E-027
 -1.199999999999999E-003   -6.695623129538166E-027
 -1.099999999999999E-003   -7.235209380962307E-027
 -9.999999999999989E-004   -7.089937971283438E-027
 -8.999999999999990E-004   -6.089452287107674E-027
 -7.999999999999990E-004   -4.116081335682887E-027
 -6.999999999999989E-004   -1.132341188909438E-027
 -5.999999999999990E-004    2.793606264986720E-027
 -4.999999999999989E-004    7.467978383335107E-027
 -3.999999999999989E-004    1.256054208139741E-026
 -2.999999999999989E-004    1.760647740795023E-026
 -1.999999999999989E-004    2.202392529889285E-026
 -9.999999999999892E-005    2.514919031465072E-026
  1.084202172485504E-018    2.629010375113159E-026
  1.000000000000011E-004    2.479612242407039E-026
  2.000000000000011E-004    2.014158881010371E-026
  3.000000000000011E-004    1.201620854641100E-026
  4.000000000000011E-004    4.145694546704785E-028
  5.000000000000011E-004   -1.428541033593221E-026
  6.000000000000011E-004   -3.126642600640921E-026
  7.000000000000011E-004   -4.924986030284384E-026
  8.000000000000011E-004   -6.651888594937917E-026
  9.000000000000012E-004   -8.099529276830354E-026
  1.000000000000001E-003   -9.037503296284611E-026
  1.100000000000001E-003   -9.232247595358519E-026
  1.200000000000001E-003   -8.471680323349325E-026
  1.300000000000001E-003   -6.593699356445377E-026
  1.400000000000001E-003   -3.516402675088824E-026
  1.500000000000001E-003    7.328085623770877E-027
  1.600000000000001E-003    5.992666840672171E-026
  1.700000000000001E-003    1.195181433826607E-025
  1.800000000000001E-003    1.814475168488060E-025
  1.900000000000001E-003    2.396343423282264E-025
  2.000000000000001E-003    2.868717252121661E-025
  2.100000000000001E-003    3.153213775076210E-025
  2.200000000000001E-003    3.172004374157012E-025
  2.300000000000001E-003    2.856327092451735E-025
  2.400000000000001E-003    2.156137268927574E-025
  2.500000000000001E-003    1.050129737436888E-025
  2.600000000000001E-003   -4.448583374023674E-026
  2.700000000000001E-003   -2.266234357444090E-025
  2.800000000000001E-003   -4.301087001684174E-025
  2.900000000000001E-003   -6.385915086280697E-025
  3.000000000000001E-003   -8.311722306790773E-025
  3.100000000000001E-003   -9.835238212344618E-025
  3.200000000000001E-003   -1.069652835406527E-024
  3.300000000000001E-003   -1.064265232955028E-024
  3.400000000000001E-003   -9.456257650500553E-025
  3.500000000000001E-003   -6.987240843770684E-025
  3.600000000000001E-003   -3.184790549350957E-025
  3.700000000000001E-003    1.873520384779570E-025
  3.800000000000001E-003    7.959392525869847E-025
  3.900000000000001E-003    1.468217998968608E-024
  4.000000000000001E-003    2.149173016856642E-024
  4.100000000000001E-003    2.769872336662997E-024
  4.200000000000001E-003    3.251441192739964E-024
  4.300000000000001E-003    3.511000733366356E-024
  4.400000000000001E-003    3.469394245218538E-024
  4.500000000000001E-003    3.060293717499300E-024
  4.600000000000002E-003    2.240049891765359E-024
  4.700000000000001E-003    9.974149171244778E-025
  4.800000000000001E-003   -6.378955204663294E-025
  4.900000000000002E-003   -2.588954792578254E-024
  5.000000000000001E-003   -4.728850993115082E-024
  5.100000000000001E-003   -6.882439510236131E-024
  5.200000000000001E-003   -8.833438402296374E-024
  5.300000000000002E-003   -1.033731238821632E-023
  5.400000000000001E-003   -1.113988585880447E-023
  5.500000000000001E-003   -1.100103729855935E-023
  5.600000000000002E-003   -9.722165431657848E-024
  5.700000000000001E-003   -7.175455368865393E-024
  5.800000000000001E-003   -3.332378221109689E-024
  5.900000000000002E-003    1.711622759131732E-024
  6.000000000000001E-003    7.719552979606007E-024
  6.100000000000001E-003    1.430567935452123E-023
  6.200000000000002E-003    2.094167608133250E-023
  6.300000000000002E-003    2.697832722026820E-023
  6.400000000000001E-003    3.168393989933399E-023
  6.500000000000001E-003    3.429918570693825E-023
  6.600000000000002E-003    3.410641751192042E-023
  6.700000000000001E-003    3.050968381648377E-023
  6.800000000000001E-003    2.311975324982787E-023
  6.900000000000002E-003    1.183685469264864E-023
  7.000000000000001E-003   -3.077512983955706E-024
  7.100000000000001E-003   -2.094907292887303E-023
  7.200000000000002E-003   -4.066889092659315E-023
  7.300000000000002E-003   -6.070950909910954E-023
  7.400000000000001E-003   -7.918543752059615E-023
  7.500000000000001E-003   -9.396147783271162E-023
  7.600000000000002E-003   -1.028081644476024E-022
  7.700000000000001E-003   -1.035990818219889E-022
  7.800000000000001E-003   -9.453948425614561E-023
  7.900000000000001E-003   -7.441041758363867E-023
  8.000000000000002E-003   -4.280779152296819E-023
  8.100000000000001E-003   -3.521030976671893E-025
  8.200000000000001E-003    5.115774313836014E-023
  8.300000000000002E-003    1.086729571310132E-022
  8.400000000000001E-003    1.679296248564094E-022
  8.500000000000002E-003    2.236081604739273E-022
  8.600000000000002E-003    2.696276097753188E-022
  8.700000000000001E-003    2.995737807110352E-022
  8.800000000000002E-003    3.072468512915678E-022
  8.900000000000002E-003    2.873002815899433E-022
  9.000000000000001E-003    2.359271670907003E-022
  9.100000000000002E-003    1.515380650680321E-022
  9.200000000000002E-003    3.536288849003984E-023
  9.300000000000001E-003   -1.080959298114778E-022
  9.400000000000002E-003   -2.708322890947438E-022
  9.500000000000001E-003   -4.413935092428040E-022
  9.600000000000001E-003   -6.052771859103501E-022
  9.700000000000002E-003   -7.456969463103845E-022
  9.800000000000001E-003   -8.447163128792938E-022
  9.900000000000001E-003   -8.847156313382601E-022
  1.000000000000000E-002   -8.501158104724826E-022
  1.010000000000000E-002   -7.292474191307407E-022
  1.020000000000000E-002   -5.162151457670898E-022
  1.030000000000000E-002   -2.125804934873439E-022
  1.040000000000000E-002    1.713299635406138E-022
  1.050000000000000E-002    6.156856708180009E-022
  1.060000000000000E-002    1.091160697643523E-021
  1.070000000000000E-002    1.559830523677040E-021
  1.080000000000000E-002    1.977041854347757E-021
  1.090000000000000E-002    2.294262835283764E-021
  1.100000000000000E-002    2.462835938537899E-021
  1.110000000000000E-002    2.438450096210577E-021
  1.120000000000000E-002    2.186056150363704E-021
  1.130000000000000E-002    1.684848850456927E-021
  1.140000000000000E-002    9.328736034819681E-022
  1.150000000000000E-002   -4.924141525632199E-023
  1.160000000000000E-002   -1.215928519836315E-021
  1.170000000000000E-002   -2.496171058388092E-021
  1.180000000000000E-002   -3.795225677508973E-021
  1.190000000000000E-002   -4.998829389340566E-021
  1.200000000000000E-002   -5.979962652656829E-021
  1.210000000000000E-002   -6.608014076428863E-021
  1.220000000000000E-002   -6.759956149056712E-021
  1.230000000000000E-002   -6.332881416026040E-021
  1.240000000000000E-002   -5.257003026782755E-021
  1.250000000000000E-002   -3.508031756328441E-021
  1.260000000000000E-002   -1.117700441772212E-021
  1.270000000000000E-002    1.818854996676166E-021
  1.280000000000000E-002    5.140085524563586E-021
  1.290000000000000E-002    8.620443240963980E-021
  1.300000000000000E-002    1.197897401945315E-020
  1.310000000000000E-002    1.489441887618322E-020
  1.320000000000000E-002    1.702663496389282E-020
  1.330000000000000E-002    1.804352535430445E-020
  1.340000000000000E-002    1.765205814187052E-020
  1.350000000000000E-002    1.563132057441023E-020
  1.360000000000000E-002    1.186500898576762E-020
  1.370000000000000E-002    6.370367702778700E-021
  1.380000000000000E-002   -6.796214297478657E-022
  1.390000000000000E-002   -8.943969465397792E-021
  1.400000000000000E-002   -1.791413172808315E-020
  1.410000000000000E-002   -2.692936241543633E-020
  1.420000000000000E-002   -3.520818887705496E-020
  1.430000000000000E-002   -4.189600856002018E-020
  1.440000000000000E-002   -4.612738440263719E-020
  1.450000000000000E-002   -4.710006612852917E-020
  1.460000000000000E-002   -4.415618350537396E-020
  1.470000000000000E-002   -3.686476664810535E-020
  1.480000000000000E-002   -2.509847048973273E-020
  1.490000000000000E-002   -9.096870325710548E-021
  1.500000000000000E-002    1.049152126376990E-020
  1.510000000000000E-002    3.259578976599563E-020
  1.520000000000000E-002    5.574364171305719E-020
  1.530000000000000E-002    7.812084067596043E-020
  1.540000000000000E-002    9.767031761816205E-020
  1.550000000000000E-002    1.122289174820190E-019
  1.560000000000000E-002    1.196961294793140E-019
  1.570000000000000E-002    1.182254125785245E-019
  1.580000000000000E-002    1.064254325950905E-019
  1.590000000000000E-002    8.355528127782480E-020
  1.600000000000000E-002    4.969598301881009E-020
  1.610000000000000E-002    5.879675704192758E-021
  1.620000000000000E-002   -4.584159318549714E-020
  1.630000000000000E-002   -1.024030014724933E-019
  1.640000000000000E-002   -1.598217095950315E-019
  1.650000000000000E-002   -2.133852964017244E-019
  1.660000000000000E-002   -2.579326131032631E-019
  1.670000000000000E-002   -2.882181842176206E-019
  1.680000000000000E-002   -2.993423557658880E-019
  1.690000000000000E-002   -2.872209485738659E-019
  1.700000000000000E-002   -2.490612986761669E-019
  1.710000000000000E-002   -1.838050072094271E-019
  1.720000000000000E-002   -9.249503456706724E-020
  1.730000000000000E-002    2.147584859665470E-020
  1.740000000000000E-002    1.522747884551460E-019
  1.750000000000000E-002    2.917289406513348E-019
  1.760000000000000E-002    4.296374516896221E-019
  1.770000000000000E-002    5.543019520275263E-019
  1.780000000000000E-002    6.532650764663372E-019
  1.790000000000000E-002    7.142276764412937E-019
  1.800000000000000E-002    7.260953057953505E-019
  1.810000000000000E-002    6.800872821467098E-019
  1.820000000000000E-002    5.708251663788291E-019
  1.830000000000000E-002    3.973068027541180E-019
  1.840000000000000E-002    1.636683812658803E-019
  1.850000000000000E-002   -1.203620988664023E-019
  1.860000000000000E-002   -4.394034543123887E-019
  1.870000000000000E-002   -7.728169377427112E-019