 -4.000000000000000E-002    0.000000000000000E+000
 -3.990000000000000E-002    0.000000000000000E+000
 -3.980000000000000E-002    0.000000000000000E+000
 -3.970000000000000E-002    0.000000000000000E+000
 -3.960000000000000E-002    0.000000000000000E+000
 -3.950000000000000E-002    0.000000000000000E+000
 -3.940000000000000E-002    0.000000000000000E+000
 -3.930000000000000E-002    0.000000000000000E+000
 -3.920000000000000E-002    0.000000000000000E+000
 -3.910000000000000E-002    0.000000000000000E+000
 -3.900000000000000E-002    0.000000000000000E+000
 -3.890000000000000E-002    0.000000000000000E+000
 -3.880000000000000E-002    0.000000000000000E+000
 -3.870000000000000E-002    0.000000000000000E+000
 -3.860000000000000E-002    0.000000000000000E+000
 -3.850000000000000E-002    0.000000000000000E+000
 -3.840000000000000E-002    0.000000000000000E+000
 -3.830000000000000E-002    0.000000000000000E+000
 -3.820000000000000E-002    0.000000000000000E+000
 -3.810000000000000E-002    0.000000000000000E+000
 -3.800000000000000E-002    0.000000000000000E+000
 -3.790000000000000E-002    0.000000000000000E+000
 -3.780000000000000E-002    0.000000000000000E+000
 -3.770000000000000E-002    0.000000000000000E+000
 -3.760000000000000E-002    0.000000000000000E+000
 -3.750000000000000E-002    0.000000000000000E+000
 -3.740000000000000E-002    0.000000000000000E+000
 -3.730000000000000E-002    0.000000000000000E+000
 -3.720000000000000E-002    0.000000000000000E+000
 -3.710000000000000E-002    0.000000000000000E+000
 -3.700000000000000E-002    0.000000000000000E+000
 -3.690000000000000E-002    0.000000000000000E+000
 -3.680000000000000E-002    0.000000000000000E+000
 -3.670000000000000E-002    0.000000000000000E+000
 -3.660000000000000E-002    0.000000000000000E+000
 -3.650000000000000E-002    0.000000000000000E+000
 -3.640000000000000E-002    0.000000000000000E+000
 -3.630000000000000E-002    0.000000000000000E+000
 -3.620000000000000E-002    0.000000000000000E+000
 -3.610000000000000E-002    0.000000000000000E+000
 -3.600000000000000E-002    0.000000000000000E+000
 -3.590000000000000E-002    0.000000000000000E+000
 -3.580000000000000E-002    0.000000000000000E+000
 -3.570000000000000E-002    0.000000000000000E+000
 -3.560000000000000E-002    0.000000000000000E+000
 -3.550000000000000E-002    0.000000000000000E+000
 -3.540000000000000E-002    0.000000000000000E+000
 -3.530000000000000E-002    0.000000000000000E+000
 -3.520000000000000E-002    0.000000000000000E+000
 -3.510000000000000E-002    0.000000000000000E+000
 -3.500000000000000E-002    0.000000000000000E+000
 -3.490000000000000E-002    0.000000000000000E+000
 -3.480000000000000E-002    0.000000000000000E+000
 -3.470000000000000E-002    0.000000000000000E+000
 -3.460000000000000E-002    0.000000000000000E+000
 -3.450000000000000E-002    0.000000000000000E+000
 -3.440000000000000E-002    0.000000000000000E+000
 -3.430000000000000E-002    0.000000000000000E+000
 -3.420000000000000E-002    0.000000000000000E+000
 -3.410000000000000E-002    0.000000000000000E+000
 -3.400000000000000E-002    0.000000000000000E+000
 -3.390000000000000E-002    0.000000000000000E+000
 -3.380000000000000E-002    0.000000000000000E+000
 -3.370000000000000E-002    0.000000000000000E+000
 -3.360000000000000E-002    0.000000000000000E+000
 -3.350000000000000E-002    0.000000000000000E+000
 -3.340000000000000E-002    0.000000000000000E+000
 -3.330000000000000E-002    0.000000000000000E+000
 -3.320000000000000E-002    0.000000000000000E+000
 -3.310000000000000E-002    0.000000000000000E+000
 -3.300000000000000E-002    0.000000000000000E+000
 -3.290000000000000E-002    0.000000000000000E+000
 -3.280000000000000E-002    0.000000000000000E+000
 -3.270000000000000E-002    0.000000000000000E+000
 -3.260000000000000E-002    0.000000000000000E+000
 -3.250000000000000E-002    0.000000000000000E+000
 -3.240000000000000E-002    0.000000000000000E+000
 -3.230000000000000E-002    0.000000000000000E+000
 -3.220000000000000E-002    0.000000000000000E+000
 -3.210000000000000E-002    0.000000000000000E+000
 -3.200000000000000E-002    0.000000000000000E+000
 -3.190000000000000E-002    0.000000000000000E+000
 -3.180000000000000E-002    0.000000000000000E+000
 -3.170000000000000E-002    0.000000000000000E+000
 -3.160000000000000E-002    0.000000000000000E+000
 -3.150000000000000E-002    0.000000000000000E+000
 -3.140000000000000E-002    0.000000000000000E+000
 -3.130000000000000E-002    0.000000000000000E+000
 -3.120000000000000E-002    0.000000000000000E+000
 -3.110000000000000E-002    0.000000000000000E+000
 -3.100000000000000E-002    0.000000000000000E+000
 -3.090000000000000E-002    0.000000000000000E+000
 -3.080000000000000E-002    0.000000000000000E+000
 -3.070000000000000E-002    0.000000000000000E+000
 -3.060000000000000E-002    0.000000000000000E+000
 -3.050000000000000E-002    0.000000000000000E+000
 -3.040000000000000E-002    0.000000000000000E+000
 -3.030000000000000E-002    0.000000000000000E+000
 -3.020000000000000E-002    0.000000000000000E+000
 -3.010000000000000E-002    0.000000000000000E+000
 -3.000000000000000E-002    0.000000000000000E+000
 -2.990000000000000E-002    0.000000000000000E+000
 -2.980000000000000E-002    0.000000000000000E+000
 -2.970000000000000E-002    0.000000000000000E+000
 -2.960000000000000E-002    0.000000000000000E+000
 -2.950000000000000E-002    0.000000000000000E+000
 -2.940000000000000E-002    0.000000000000000E+000
 -2.930000000000000E-002    0.000000000000000E+000
 -2.920000000000000E-002    0.000000000000000E+000
 -2.910000000000000E-002    0.000000000000000E+000
 -2.900000000000000E-002    0.000000000000000E+000
 -2.890000000000000E-002    0.000000000000000E+000
 -2.880000000000000E-002    7.431844606679462E-049
 -2.870000000000000E-002    3.666376708740451E-048
 -2.860000000000000E-002    8.846153327105893E-048
 -2.850000000000000E-002    2.514294439878481E-047
 -2.840000000000000E-002    4.287655879720034E-047
 -2.830000000000000E-002    6.204699652235248E-047
 -2.820000000000000E-002    7.898788086550079E-047
 -2.810000000000000E-002    1.532327185563168E-046
 -2.800000000000000E-002    3.603231410974217E-046
 -2.790000000000000E-002    5.280195563668782E-046
 -2.780000000000000E-002    5.767982588663064E-046
 -2.770000000000000E-002    6.434107002773365E-046
 -2.760000000000000E-002    1.010638875039105E-045
 -2.750000000000000E-002    1.156063294055815E-045
 -2.740000000000000E-002   -3.541497745070420E-046
 -2.730000000000000E-002   -2.331719305700372E-045
 -2.720000000000000E-002   -6.286147808206820E-045
 -2.710000000000000E-002   -1.126859506286198E-044
 -2.700000000000000E-002   -1.832811379354366E-044
 -2.690000000000000E-002   -2.615237443198846E-044
 -2.680000000000000E-002   -3.438601146529401E-044
 -2.670000000000000E-002   -4.131359311501580E-044
 -2.660000000000000E-002   -4.373234063069783E-044
 -2.650000000000000E-002   -3.866210530002494E-044
 -2.640000000000000E-002   -1.988340546214406E-044
 -2.630000000000000E-002    1.735528790192710E-044
 -2.620000000000000E-002    7.963332278967369E-044
 -2.610000000000000E-002    1.707789945643714E-043
 -2.600000000000000E-002    2.915582377079024E-043
 -2.590000000000000E-002    4.370415654047014E-043
 -2.580000000000000E-002    5.956069973792569E-043
 -2.570000000000000E-002    7.451434626527020E-043
 -2.560000000000000E-002    8.535564524356318E-043
 -2.550000000000000E-002    8.789622890581755E-043
 -2.540000000000000E-002    7.671758583300573E-043
 -2.530000000000000E-002    4.591936524890800E-043
 -2.520000000000000E-002   -1.108662652014453E-043
 -2.510000000000000E-002   -1.007979784920559E-042
 -2.500000000000000E-002   -2.298224340481331E-042
 -2.490000000000000E-002   -4.049772942046591E-042
 -2.480000000000000E-002   -6.331757405616592E-042
 -2.470000000000000E-002   -9.213905820162926E-042
 -2.460000000000000E-002   -1.274983322873955E-041
 -2.450000000000000E-002   -1.693811180686397E-041
 -2.440000000000000E-002   -2.163355163066183E-041
 -2.430000000000000E-002   -2.639395630583064E-041
 -2.420000000000000E-002   -3.023819821578808E-041
 -2.410000000000000E-002   -3.131700247756268E-041
 -2.400000000000000E-002   -2.652759388472529E-041
 -2.390000000000000E-002   -1.114511630857250E-041
 -2.380000000000000E-002    2.137191820354427E-041
 -2.370000000000000E-002    7.916471572892148E-041
 -2.360000000000000E-002    1.710317124596275E-040
 -2.350000000000000E-002    3.043820817731268E-040
 -2.340000000000000E-002    4.817366043660813E-040
 -2.330000000000000E-002    6.955655500837920E-040
 -2.320000000000000E-002    9.215788020877329E-040
 -2.310000000000000E-002    1.111121126615234E-039
 -2.300000000000000E-002    1.184128284654676E-039
 -2.290000000000000E-002    1.025034531329934E-039
 -2.280000000000000E-002    4.850987499644351E-040
 -2.270000000000000E-002   -6.045939003343732E-040
 -2.260000000000000E-002   -2.404868311700846E-039
 -2.250000000000000E-002   -5.021125218362378E-039
 -2.240000000000000E-002   -8.435394693271556E-039
 -2.230000000000000E-002   -1.242052167409624E-038
 -2.220000000000000E-002   -1.644577816942229E-038
 -2.210000000000000E-002   -1.959172910175204E-038
 -2.200000000000000E-002   -2.050195977738273E-038
 -2.190000000000000E-002   -1.740846635741445E-038
 -2.180000000000000E-002   -8.273529433357571E-039
 -2.170000000000000E-002    8.909907850260632E-039
 -2.160000000000000E-002    3.562895694973839E-038
 -2.150000000000000E-002    7.216861498947983E-038
 -2.140000000000000E-002    1.167765188286789E-037
 -2.130000000000000E-002    1.647755705889511E-037
 -2.120000000000000E-002    2.077995510618842E-037
 -2.110000000000000E-002    2.334038406213847E-037
 -2.100000000000000E-002    2.253669141769188E-037
 -2.090000000000000E-002    1.650246459595677E-037
 -2.080000000000000E-002    3.394211349205897E-038
 -2.070000000000000E-002   -1.819026556658111E-037
 -2.060000000000000E-002   -4.864925883316669E-037
 -2.050000000000000E-002   -8.671388249604904E-037
 -2.040000000000000E-002   -1.287748491128427E-036
 -2.030000000000000E-002   -1.683426952067098E-036
 -2.020000000000000E-002   -1.958340273698396E-036
 -2.010000000000000E-002   -1.989091998270881E-036
 -2.000000000000000E-002   -1.635868631085488E-036
 -1.990000000000000E-002   -7.631104840803031E-037
 -1.980000000000000E-002    7.296852016547119E-037
 -1.970000000000000E-002    2.868305452487628E-036
 -1.960000000000000E-002    5.559165029130415E-036
 -1.950000000000000E-002    8.546576641262531E-036
 -1.940000000000000E-002    1.138200310177639E-035
 -1.930000000000000E-002    1.341788958966782E-035
 -1.920000000000000E-002    1.383979006527067E-035
 -1.910000000000000E-002    1.174923523427392E-035
 -1.900000000000000E-002    6.305283949254623E-036
 -1.890000000000000E-002   -3.075729518242024E-036
 -1.880000000000000E-002   -1.647507458304103E-035
 -1.870000000000000E-002   -3.320958097993256E-035
 -1.860000000000000E-002   -5.159819335065985E-035
 -1.850000000000000E-002   -6.881838753478169E-035
 -1.840000000000000E-002   -8.092409021612163E-035
 -1.830000000000000E-002   -8.309732401405602E-035
 -1.820000000000000E-002   -7.019188876892662E-035
 -1.810000000000000E-002   -3.759527929857582E-035
 -1.800000000000000E-002    1.761674816936182E-035
 -1.790000000000000E-002    9.532835088665173E-035
 -1.780000000000000E-002    1.910117286919686E-034
 -1.770000000000000E-002    2.945946052115376E-034
 -1.760000000000000E-002    3.898937983873142E-034
 -1.750000000000000E-002    4.549733784652104E-034
 -1.740000000000000E-002    4.637617884929515E-034
 -1.730000000000000E-002    3.891632336806296E-034
 -1.720000000000000E-002    2.077131170047189E-034
 -1.710000000000000E-002   -9.444478216837908E-035
 -1.700000000000000E-002   -5.148224306969778E-034
 -1.690000000000000E-002   -1.028029685807488E-033
 -1.680000000000000E-002   -1.580678776576523E-033
 -1.670000000000000E-002   -2.089284096049550E-033
 -1.660000000000000E-002   -2.442754060698929E-033
 -1.650000000000000E-002   -2.510869365348735E-033
 -1.640000000000000E-002   -2.159610770597643E-033
 -1.630000000000000E-002   -1.273314273865422E-033
 -1.620000000000000E-002    2.175822993671908E-034
 -1.610000000000000E-002    2.305882044639319E-033
 -1.600000000000000E-002    4.878239336183402E-033
 -1.590000000000000E-002    7.692544805843839E-033
 -1.580000000000000E-002    1.036844241841700E-032
 -1.570000000000000E-002    1.239742890960280E-032
 -1.560000000000000E-002    1.317802595043770E-032
 -1.550000000000000E-002    1.207934681947819E-032
 -1.540000000000000E-002    8.532947375892644E-033
 -1.530000000000000E-002    2.148298122098629E-033
 -1.520000000000000E-002   -7.158065579351660E-033
 -1.510000000000000E-002   -1.903509494619917E-032
 -1.500000000000000E-002   -3.259169640620313E-032
 -1.490000000000000E-002   -4.633663185989967E-032
 -1.480000000000000E-002   -5.818829974755292E-032
 -1.470000000000000E-002   -6.557653316465937E-032
 -1.460000000000000E-002   -6.565250883861376E-032
 -1.450000000000000E-002   -5.561287123212416E-032
 -1.440000000000000E-002   -3.313035646120899E-032
 -1.430000000000000E-002    3.133471307533130E-033
 -1.420000000000000E-002    5.297655969935737E-032
 -1.410000000000000E-002    1.141276127316152E-031
 -1.400000000000000E-002    1.818192499838879E-031
 -1.390000000000000E-002    2.485550391562632E-031
 -1.380000000000000E-002    3.041686980044042E-031
 -1.370000000000000E-002    3.362709944048939E-031
 -1.360000000000000E-002    3.311647993276646E-031
 -1.350000000000000E-002    2.752793537702253E-031
 -1.340000000000000E-002    1.571277776684548E-031
 -1.330000000000000E-002   -3.027421141988370E-032
 -1.320000000000000E-002   -2.866751252571849E-031
 -1.310000000000000E-002   -6.017898213040700E-031
 -1.300000000000000E-002   -9.527998084064292E-031
 -1.290000000000000E-002   -1.302629219918043E-030
 -1.280000000000000E-002   -1.599570170638708E-030
 -1.270000000000000E-002   -1.778887004059059E-030
 -1.260000000000000E-002   -1.767012445646089E-030
 -1.250000000000000E-002   -1.488826540594160E-030
 -1.240000000000000E-002   -8.782485920064991E-031
 -1.230000000000000E-002    1.080493229107986E-031
 -1.220000000000000E-002    1.474591098094754E-030
 -1.210000000000000E-002    3.170226247846689E-030
 -1.200000000000000E-002    5.072779029995988E-030
 -1.190000000000000E-002    6.978350467975657E-030
 -1.180000000000000E-002    8.599025444042674E-030
 -1.170000000000000E-002    9.572981755928162E-030
 -1.160000000000000E-002    9.490653998062121E-030
 -1.150000000000000E-002    7.939490793104580E-030
 -1.140000000000000E-002    4.567769973571808E-030
 -1.130000000000000E-002   -8.350581386831200E-031
 -1.120000000000000E-002   -8.247914948588134E-030
 -1.110000000000000E-002   -1.732827145075488E-029
 -1.100000000000000E-002   -2.733803726106705E-029
 -1.090000000000000E-002   -3.710366427318978E-029
 -1.080000000000000E-002   -4.503066493467256E-029
 -1.070000000000000E-002   -4.919156289692664E-029
 -1.060000000000000E-002   -4.750152397649054E-029
 -1.050000000000000E-002   -3.798674649364454E-029
 -1.040000000000000E-002   -1.913727841973580E-029
 -1.030000000000000E-002    9.681219668866487E-030
 -1.020000000000000E-002    4.780141713965075E-029
 -1.010000000000000E-002    9.287742893791533E-029
 -1.000000000000000E-002    1.406356106985438E-028
 -9.899999999999999E-003    1.848389635413048E-028
 -9.800000000000000E-003    2.175469590205113E-028
 -9.699999999999999E-003    2.297337499251751E-028
 -9.599999999999999E-003    2.122918590194533E-028
 -9.500000000000000E-003    1.573963640565990E-028
 -9.399999999999999E-003    6.013870121828738E-029
 -9.299999999999999E-003   -7.973359363580276E-029
 -9.200000000000000E-003   -2.562056711399922E-028
 -9.099999999999999E-003   -4.558032438449304E-028
 -8.999999999999999E-003   -6.571385976074028E-028
 -8.900000000000000E-003   -8.315007029655430E-028
 -8.799999999999999E-003   -9.447318089384225E-028
 -8.699999999999999E-003   -9.605098326102236E-028
 -8.600000000000000E-003   -8.449808540789896E-028
 -8.499999999999999E-003   -5.724644428702740E-028
 -8.399999999999999E-003   -1.317111774783396E-028
 -8.300000000000000E-003    4.680423323388766E-028
 -8.199999999999999E-003    1.192166002093702E-027
 -8.100000000000000E-003    1.977922295202514E-027
 -8.000000000000000E-003    2.734968070289597E-027
 -7.899999999999999E-003    3.349913619224629E-027
 -7.800000000000000E-003    3.695429846492438E-027
 -7.699999999999999E-003    3.643878999275631E-027
 -7.599999999999999E-003    3.084801435564138E-027
 -7.499999999999999E-003    1.944872434729640E-027
 -7.399999999999999E-003    2.082411303637902E-028
 -7.299999999999999E-003   -2.065420119464284E-027
 -7.199999999999999E-003   -4.728197346413222E-027
 -7.100000000000000E-003   -7.539619404217192E-027
 -6.999999999999999E-003   -1.017345479647068E-026
 -6.899999999999999E-003   -1.223751435543737E-026
 -6.800000000000000E-003   -1.330710862353511E-026
 -6.699999999999999E-003   -1.297119079081701E-026
 -6.599999999999999E-003   -1.088837775795298E-026
 -6.499999999999999E-003   -6.848138885907155E-027
 -6.399999999999999E-003   -8.307390944352660E-028
 -6.299999999999999E-003    6.941776444752286E-027
 -6.199999999999999E-003    1.597188266821527E-026
 -6.100000000000000E-003    2.547826556161103E-026
 -5.999999999999999E-003    3.441976708838547E-026
 -5.899999999999999E-003    4.155617671955721E-026
 -5.800000000000000E-003    4.554722948252324E-026
 -5.699999999999999E-003    4.508709963252855E-026
 -5.599999999999999E-003    3.906712382719055E-026
 -5.499999999999999E-003    2.675476683196219E-026
 -5.399999999999999E-003    7.972424030818576E-027
 -5.299999999999999E-003   -1.674396437111550E-026
 -5.199999999999999E-003   -4.602880353446917E-026
 -5.099999999999999E-003   -7.763617072173608E-026
 -4.999999999999999E-003   -1.084757548889494E-025
 -4.899999999999999E-003   -1.347525295872522E-025
 -4.799999999999999E-003   -1.522202906143077E-025
 -4.699999999999999E-003   -1.565496238520257E-025
 -4.599999999999999E-003   -1.437988060572796E-025
 -4.499999999999999E-003   -1.109620861115522E-025
 -4.399999999999999E-003   -5.655472968318457E-026
 -4.299999999999999E-003    1.882075811849079E-026
 -4.199999999999999E-003    1.119956252732674E-025
 -4.099999999999999E-003    2.169207890367040E-025
 -3.999999999999999E-003    3.245981528795028E-025
 -3.899999999999999E-003    4.233323075521475E-025
 -3.799999999999999E-003    4.993616812068097E-025
 -3.699999999999999E-003    5.379002836777077E-025
 -3.599999999999999E-003    5.245812737000995E-025
 -3.499999999999999E-003    4.472429326107211E-025
 -3.399999999999999E-003    2.979390554624880E-025
 -3.299999999999999E-003    7.499497205620040E-026
 -3.199999999999999E-003   -2.151261881077043E-025
 -3.099999999999999E-003   -5.564243620418735E-025
 -2.999999999999999E-003   -9.227279834946391E-025
 -2.899999999999999E-003   -1.278108096119602E-024
 -2.799999999999999E-003   -1.578571539224392E-024
 -2.699999999999999E-003   -1.775166592025336E-024
 -2.599999999999999E-003   -1.818491837695609E-024
 -2.499999999999999E-003   -1.664422916813355E-024
 -2.399999999999999E-003   -1.280667865163848E-024
 -2.299999999999999E-003   -6.535626129746812E-025
 -2.199999999999999E-003    2.056645318670232E-025
 -2.099999999999999E-003    1.256051776266562E-024
 -1.999999999999999E-003    2.424423967279978E-024
 -1.899999999999999E-003    3.606141280696982E-024
 -1.799999999999999E-003    4.669753561943574E-024
 -1.699999999999999E-003    5.465914781856495E-024
 -1.599999999999999E-003    5.840472997287594E-024
 -1.499999999999999E-003    5.651127877312054E-024
 -1.399999999999999E-003    4.786481033545049E-024
 -1.299999999999999E-003    3.185769109048716E-024
 -1.199999999999999E-003    8.571240264394597E-025
 -1.099999999999999E-003   -2.108069608028916E-024
 -9.999999999999989E-004   -5.527184710271972E-024
 -8.999999999999990E-004   -9.126951199603389E-024
 -7.999999999999990E-004   -1.255431223529366E-023
 -6.999999999999989E-004   -1.539836561577468E-023
 -5.999999999999990E-004   -1.722312156711680E-023
 -4.999999999999989E-004   -1.760956283672405E-023
 -3.999999999999989E-004   -1.620420473090908E-023
 -2.999999999999989E-004   -1.277013979404005E-023
 -1.999999999999989E-004   -7.235612134674654E-024
 -9.999999999999892E-005    2.654404117729779E-025
  1.084202172485504E-018    9.366514207984463E-024
  1.000000000000011E-004    1.946053060782321E-023
  2.000000000000011E-004    2.971481594233343E-023
  3.000000000000011E-004    3.911159254003369E-023
  4.000000000000011E-004    4.651444256214534E-023
  5.000000000000011E-004    5.075877283259662E-023
  6.000000000000011E-004    5.076176911838055E-023
  7.000000000000011E-004    4.564479726062735E-023
  8.000000000000011E-004    3.485894655730915E-023
  9.000000000000012E-004    1.830260974920631E-023
  1.000000000000001E-003   -3.581134537953357E-024
  1.100000000000001E-003   -2.973989512476672E-023
  1.200000000000001E-003   -5.849201102658058E-023
  1.300000000000001E-003   -8.756145746635336E-023
  1.400000000000001E-003   -1.141749785716020E-022
  1.500000000000001E-003   -1.352248630283006E-022
  1.600000000000001E-003   -1.474957829742710E-022
  1.700000000000001E-003   -1.479481131426798E-022
  1.800000000000001E-003   -1.340436476317018E-022
  1.900000000000001E-003   -1.040926439453890E-022
  2.000000000000001E-003   -5.759458440850889E-023
  2.100000000000001E-003    4.460772197380842E-024
  2.200000000000001E-003    7.936937635711997E-023
  2.300000000000001E-003    1.626047069675895E-022
  2.400000000000001E-003    2.478620198335284E-022
  2.500000000000001E-003    3.272854675241590E-022
  2.600000000000001E-003    3.918972357125967E-022
  2.700000000000001E-003    4.322323024891389E-022
  2.800000000000001E-003    4.391618067971304E-022
  2.900000000000001E-003    4.048649745788685E-022
  3.000000000000001E-003    3.238845595915683E-022
  3.100000000000001E-003    1.941767688531163E-022
  3.200000000000001E-003    1.804741025337983E-023
  3.300000000000001E-003   -1.971470745068777E-022
  3.400000000000001E-003   -4.386566738807628E-022
  3.500000000000001E-003   -6.884652841751703E-022
  3.600000000000001E-003   -9.239757231591673E-022
  3.700000000000001E-003   -1.119298326680723E-021
  3.800000000000001E-003   -1.247136399143956E-021
  3.900000000000001E-003   -1.281197137708997E-021
  4.000000000000001E-003   -1.198987978058287E-021
  4.100000000000001E-003   -9.847913704660867E-022
  4.200000000000001E-003   -6.325518721483351E-022
  4.300000000000001E-003   -1.483697621230245E-022
  4.400000000000001E-003    4.477223324942296E-022
  4.500000000000001E-003    1.121008355234647E-021
  4.600000000000002E-003    1.822625025421918E-021
  4.700000000000001E-003    2.491565018823861E-021
  4.800000000000001E-003    3.058213243943489E-021
  4.900000000000002E-003    3.449345976952371E-021
  5.000000000000001E-003    3.594370631316447E-021
  5.100000000000001E-003    3.432429838050780E-021
  5.200000000000001E-003    2.919854310485781E-021
  5.300000000000002E-003    2.037332843319393E-021
  5.400000000000001E-003    7.960962944498284E-022
  5.500000000000001E-003   -7.576079960562221E-022
  5.600000000000002E-003   -2.540435156263798E-021
  5.700000000000001E-003   -4.432837854845986E-021
  5.800000000000001E-003   -6.283346225107054E-021
  5.900000000000002E-003   -7.916422671545467E-021
  6.000000000000001E-003   -9.143802283034694E-021
  6.100000000000001E-003   -9.778927403194767E-021
  6.200000000000002E-003   -9.653761705022031E-021
  6.300000000000002E-003   -8.636955023407953E-021
  6.400000000000001E-003   -6.652052280945912E-021
  6.500000000000001E-003   -3.694205759562002E-021
  6.600000000000002E-003    1.562892754413798E-022
  6.700000000000001E-003    4.725354241591764E-021
  6.800000000000001E-003    9.743007797716182E-021
  6.900000000000002E-003    1.484915521112247E-020
  7.000000000000001E-003    1.960826833878130E-020
  7.100000000000001E-003    2.353338169951385E-020
  7.200000000000002E-003    2.611911577560334E-020
  7.300000000000002E-003    2.688259877331726E-020
  7.400000000000001E-003    2.541025655015706E-020
  7.500000000000001E-003    2.140750245841426E-020
  7.600000000000002E-003    1.474750112654705E-020
  7.700000000000001E-003    5.514498430000155E-021
  7.800000000000001E-003   -5.963250594856305E-021
  7.900000000000001E-003   -1.909595144377182E-020
  8.000000000000002E-003   -3.303477319079384E-020
  8.100000000000001E-003   -4.669808007599544E-020
  8.200000000000001E-003   -5.882367434953217E-020
  8.300000000000002E-003   -6.804733601105480E-020
  8.400000000000001E-003   -7.300557863461020E-020
  8.500000000000002E-003   -7.245787751288854E-020
  8.600000000000002E-003   -6.542087649108089E-020
  8.700000000000001E-003   -5.130456479438164E-020
  8.800000000000002E-003   -3.003831103209050E-020
  8.900000000000002E-003   -2.173334393221903E-021
  9.000000000000001E-003    3.105205286325731E-020
  9.100000000000002E-003    6.769718935609383E-020
  9.200000000000002E-003    1.051641856929054E-019
  9.300000000000001E-003    1.403101103374471E-019
  9.400000000000002E-003    1.696279974485856E-019
  9.500000000000001E-003    1.894924123952589E-019
  9.600000000000001E-003    1.964587615792511E-019
  9.700000000000002E-003    1.875989414611762E-019
  9.800000000000001E-003    1.608495917598380E-019
  9.900000000000001E-003    1.153442954602882E-019
  1.000000000000000E-002    5.169777341646444E-020
  1.010000000000000E-002   -2.779094263559262E-020
  1.020000000000000E-002   -1.190475829363496E-019
  1.030000000000000E-002   -2.162704738865581E-019
  1.040000000000000E-002   -3.121359076875088E-019
  1.050000000000000E-002   -3.981693162544578E-019
  1.060000000000000E-002   -4.652776349862596E-019
  1.070000000000000E-002   -5.044237671089815E-019
  1.080000000000000E-002   -5.074090405017182E-019
  1.090000000000000E-002   -4.677148508001684E-019
  1.100000000000000E-002   -3.813419675034995E-019
  1.110000000000000E-002   -2.475761818143886E-019
  1.120000000000000E-002   -6.960354599322740E-020
  1.130000000000000E-002    1.451012813142493E-019
  1.140000000000000E-002    3.846838879611968E-019
  1.150000000000000E-002    6.331728662236082E-019
  1.160000000000000E-002    8.711334885048433E-019
  1.170000000000000E-002    1.076722315584824E-018
  1.180000000000000E-002    1.227121038428503E-018
  1.190000000000000E-002    1.300292903538824E-018
  1.200000000000000E-002    1.276967714780987E-018
  1.210000000000000E-002    1.142727047183344E-018
  1.220000000000000E-002    8.900312752146837E-019
  1.230000000000000E-002    5.200073321003589E-019
  1.240000000000000E-002    4.380675813942474E-020
  1.250000000000000E-002   -5.166528071734279E-019
  1.260000000000000E-002   -1.128728438458504E-018
  1.270000000000000E-002   -1.750002793579395E-018
  1.280000000000000E-002   -2.330215968962910E-018
  1.290000000000000E-002   -2.814178284783404E-018
  1.300000000000000E-002   -3.145580396114488E-018
  1.310000000000000E-002   -3.271526300355380E-018
  1.320000000000000E-002   -3.147523426820680E-018
  1.330000000000000E-002   -2.742584611885745E-018
  1.340000000000000E-002   -2.044025762226001E-018
  1.350000000000000E-002   -1.061506816396905E-018
  1.360000000000000E-002    1.701495626623300E-019
  1.370000000000000E-002    1.589794184506444E-018
  1.380000000000000E-002    3.110805582206331E-018
  1.390000000000000E-002    4.624210204322129E-018
  1.400000000000000E-002    6.004164468576796E-018
  1.410000000000000E-002    7.115709404591952E-018
  1.420000000000000E-002    7.824503872794655E-018
  1.430000000000000E-002    8.008029848214084E-018
  1.440000000000000E-002    7.567563803856388E-018
  1.450000000000000E-002    6.440034813046401E-018
  1.460000000000000E-002    4.608768665956021E-018
  1.470000000000000E-002    2.112058256756474E-018
  1.480000000000000E-002   -9.514751128863406E-019
  1.490000000000000E-002   -4.421658864892280E-018
  1.500000000000000E-002   -8.080403933865476E-018
  1.510000000000000E-002   -1.166062685050974E-017
  1.520000000000000E-002   -1.486051783753831E-017
  1.530000000000000E-002   -1.736278391150646E-017
  1.540000000000000E-002   -1.885803538242301E-017
  1.550000000000000E-002   -1.907102735244402E-017
  1.560000000000000E-002   -1.778804654462909E-017
  1.570000000000000E-002   -1.488339265587492E-017
  1.580000000000000E-002   -1.034268285059965E-017
  1.590000000000000E-002   -4.280632989870381E-018
  1.600000000000000E-002    3.048926290766542E-018
  1.610000000000000E-002    1.125273291503634E-017
  1.620000000000000E-002    1.980891360394907E-017
  1.630000000000000E-002    2.808969022917897E-017
  1.640000000000000E-002    3.539587430399063E-017
  1.650000000000000E-002    4.100209909752686E-017
  1.660000000000000E-002    4.421072047420561E-017
  1.670000000000000E-002    4.441133629942665E-017
  1.680000000000000E-002    4.114198242270321E-017
  1.690000000000000E-002    3.414738474793022E-017
  1.700000000000000E-002    2.342919265095406E-017
  1.710000000000000E-002    9.283074478616772E-018
  1.720000000000000E-002   -7.682150117937317E-018
  1.730000000000000E-002   -2.654741222386785E-017
  1.740000000000000E-002   -4.611122163657186E-017
  1.750000000000000E-002   -6.494373578469552E-017
  1.760000000000000E-002   -8.146651352145194E-017
  1.770000000000000E-002   -9.405523956334341E-017
  1.780000000000000E-002   -1.011605639686947E-016
  1.790000000000000E-002   -1.014400523749528E-016
  1.800000000000000E-002   -9.389241811212856E-017
  1.810000000000000E-002   -7.798381492523839E-017
  1.820000000000000E-002   -5.375515081273403E-017
  1.830000000000000E-002   -2.189944126076711E-017
  1.840000000000000E-002    1.620102613492801E-017
  1.850000000000000E-002    5.848608222720214E-017
  1.860000000000000E-002    1.022834111131831E-016
  1.870000000000000E-002    1.444308599584528E-016