 -4.000000000000000E-002    0.000000000000000E+000
 -3.990000000000000E-002    0.000000000000000E+000
 -3.980000000000000E-002    0.000000000000000E+000
 -3.970000000000000E-002    0.000000000000000E+000
 -3.960000000000000E-002    0.000000000000000E+000
 -3.950000000000000E-002    0.000000000000000E+000
 -3.940000000000000E-002    0.000000000000000E+000
 -3.930000000000000E-002    0.000000000000000E+000
 -3.920000000000000E-002    0.000000000000000E+000
 -3.910000000000000E-002    0.000000000000000E+000
 -3.900000000000000E-002    0.000000000000000E+000
 -3.890000000000000E-002    0.000000000000000E+000
 -3.880000000000000E-002    0.000000000000000E+000
 -3.870000000000000E-002    0.000000000000000E+000
 -3.860000000000000E-002    0.000000000000000E+000
 -3.850000000000000E-002    0.000000000000000E+000
 -3.840000000000000E-002    0.000000000000000E+000
 -3.830000000000000E-002    0.000000000000000E+000
 -3.820000000000000E-002    0.000000000000000E+000
 -3.810000000000000E-002    0.000000000000000E+000
 -3.800000000000000E-002    0.000000000000000E+000
 -3.790000000000000E-002    0.000000000000000E+000
 -3.780000000000000E-002    0.000000000000000E+000
 -3.770000000000000E-002    0.000000000000000E+000
 -3.760000000000000E-002    0.000000000000000E+000
 -3.750000000000000E-002    0.000000000000000E+000
 -3.740000000000000E-002    0.000000000000000E+000
 -3.730000000000000E-002    0.000000000000000E+000
 -3.720000000000000E-002    0.000000000000000E+000
 -3.710000000000000E-002    0.000000000000000E+000
 -3.700000000000000E-002    0.000000000000000E+000
 -3.690000000000000E-002    0.000000000000000E+000
 -3.680000000000000E-002    0.000000000000000E+000
 -3.670000000000000E-002    0.000000000000000E+000
 -3.660000000000000E-002    0.000000000000000E+000
 -3.650000000000000E-002    0.000000000000000E+000
 -3.640000000000000E-002    0.000000000000000E+000
 -3.630000000000000E-002    0.000000000000000E+000
 -3.620000000000000E-002    0.000000000000000E+000
 -3.610000000000000E-002    0.000000000000000E+000
 -3.600000000000000E-002    0.000000000000000E+000
 -3.590000000000000E-002    0.000000000000000E+000
 -3.580000000000000E-002    0.000000000000000E+000
 -3.570000000000000E-002    0.000000000000000E+000
 -3.560000000000000E-002    0.000000000000000E+000
 -3.550000000000000E-002    0.000000000000000E+000
 -3.540000000000000E-002    0.000000000000000E+000
 -3.530000000000000E-002    0.000000000000000E+000
 -3.520000000000000E-002    0.000000000000000E+000
 -3.510000000000000E-002    0.000000000000000E+000
 -3.500000000000000E-002    0.000000000000000E+000
 -3.490000000000000E-002    0.000000000000000E+000
 -3.480000000000000E-002    0.000000000000000E+000
 -3.470000000000000E-002    0.000000000000000E+000
 -3.460000000000000E-002    0.000000000000000E+000
 -3.450000000000000E-002    0.000000000000000E+000
 -3.440000000000000E-002    0.000000000000000E+000
 -3.430000000000000E-002    0.000000000000000E+000
 -3.420000000000000E-002    0.000000000000000E+000
 -3.410000000000000E-002    0.000000000000000E+000
 -3.400000000000000E-002    0.000000000000000E+000
 -3.390000000000000E-002    0.000000000000000E+000
 -3.380000000000000E-002    0.000000000000000E+000
 -3.370000000000000E-002    0.000000000000000E+000
 -3.360000000000000E-002    0.000000000000000E+000
 -3.350000000000000E-002    0.000000000000000E+000
 -3.340000000000000E-002    0.000000000000000E+000
 -3.330000000000000E-002    0.000000000000000E+000
 -3.320000000000000E-002    0.000000000000000E+000
 -3.310000000000000E-002    0.000000000000000E+000
 -3.300000000000000E-002    0.000000000000000E+000
 -3.290000000000000E-002    0.000000000000000E+000
 -3.280000000000000E-002    0.000000000000000E+000
 -3.270000000000000E-002    0.000000000000000E+000
 -3.260000000000000E-002    0.000000000000000E+000
 -3.250000000000000E-002    0.000000000000000E+000
 -3.240000000000000E-002    0.000000000000000E+000
 -3.230000000000000E-002    0.000000000000000E+000
 -3.220000000000000E-002    0.000000000000000E+000
 -3.210000000000000E-002    0.000000000000000E+000
 -3.200000000000000E-002    0.000000000000000E+000
 -3.190000000000000E-002    0.000000000000000E+000
 -3.180000000000000E-002    0.000000000000000E+000
 -3.170000000000000E-002    0.000000000000000E+000
 -3.160000000000000E-002    0.000000000000000E+000
 -3.150000000000000E-002    0.000000000000000E+000
 -3.140000000000000E-002    0.000000000000000E+000
 -3.130000000000000E-002    0.000000000000000E+000
 -3.120000000000000E-002    0.000000000000000E+000
 -3.110000000000000E-002    0.000000000000000E+000
 -3.100000000000000E-002    0.000000000000000E+000
 -3.090000000000000E-002    0.000000000000000E+000
 -3.080000000000000E-002    0.000000000000000E+000
 -3.070000000000000E-002    0.000000000000000E+000
 -3.060000000000000E-002    0.000000000000000E+000
 -3.050000000000000E-002    0.000000000000000E+000
 -3.040000000000000E-002    0.000000000000000E+000
 -3.030000000000000E-002    0.000000000000000E+000
 -3.020000000000000E-002    0.000000000000000E+000
 -3.010000000000000E-002    0.000000000000000E+000
 -3.000000000000000E-002    0.000000000000000E+000
 -2.990000000000000E-002    0.000000000000000E+000
 -2.980000000000000E-002    0.000000000000000E+000
 -2.970000000000000E-002    0.000000000000000E+000
 -2.960000000000000E-002    0.000000000000000E+000
 -2.950000000000000E-002    0.000000000000000E+000
 -2.940000000000000E-002    0.000000000000000E+000
 -2.930000000000000E-002    0.000000000000000E+000
 -2.920000000000000E-002    0.000000000000000E+000
 -2.910000000000000E-002    0.000000000000000E+000
 -2.900000000000000E-002    0.000000000000000E+000
 -2.890000000000000E-002    0.000000000000000E+000
 -2.880000000000000E-002    0.000000000000000E+000
 -2.870000000000000E-002    0.000000000000000E+000
 -2.860000000000000E-002    0.000000000000000E+000
 -2.850000000000000E-002    0.000000000000000E+000
 -2.840000000000000E-002    0.000000000000000E+000
 -2.830000000000000E-002    0.000000000000000E+000
 -2.820000000000000E-002    0.000000000000000E+000
 -2.810000000000000E-002    0.000000000000000E+000
 -2.800000000000000E-002    0.000000000000000E+000
 -2.790000000000000E-002    0.000000000000000E+000
 -2.780000000000000E-002    0.000000000000000E+000
 -2.770000000000000E-002    0.000000000000000E+000
 -2.760000000000000E-002    0.000000000000000E+000
 -2.750000000000000E-002    0.000000000000000E+000
 -2.740000000000000E-002    0.000000000000000E+000
 -2.730000000000000E-002    0.000000000000000E+000
 -2.720000000000000E-002    0.000000000000000E+000
 -2.710000000000000E-002    0.000000000000000E+000
 -2.700000000000000E-002    0.000000000000000E+000
 -2.690000000000000E-002    0.000000000000000E+000
 -2.680000000000000E-002    0.000000000000000E+000
 -2.670000000000000E-002    0.000000000000000E+000
 -2.660000000000000E-002    0.000000000000000E+000
 -2.650000000000000E-002    0.000000000000000E+000
 -2.640000000000000E-002    0.000000000000000E+000
 -2.630000000000000E-002    0.000000000000000E+000
 -2.620000000000000E-002    0.000000000000000E+000
 -2.610000000000000E-002    0.000000000000000E+000
 -2.600000000000000E-002    0.000000000000000E+000
 -2.590000000000000E-002    0.000000000000000E+000
 -2.580000000000000E-002    0.000000000000000E+000
 -2.570000000000000E-002    0.000000000000000E+000
 -2.560000000000000E-002    0.000000000000000E+000
 -2.550000000000000E-002    0.000000000000000E+000
 -2.540000000000000E-002    0.000000000000000E+000
 -2.530000000000000E-002    0.000000000000000E+000
 -2.520000000000000E-002    0.000000000000000E+000
 -2.510000000000000E-002    0.000000000000000E+000
 -2.500000000000000E-002    0.000000000000000E+000
 -2.490000000000000E-002    0.000000000000000E+000
 -2.480000000000000E-002    0.000000000000000E+000
 -2.470000000000000E-002    0.000000000000000E+000
 -2.460000000000000E-002    0.000000000000000E+000
 -2.450000000000000E-002    0.000000000000000E+000
 -2.440000000000000E-002    0.000000000000000E+000
 -2.430000000000000E-002    0.000000000000000E+000
 -2.420000000000000E-002    0.000000000000000E+000
 -2.410000000000000E-002    0.000000000000000E+000
 -2.400000000000000E-002    0.000000000000000E+000
 -2.390000000000000E-002    0.000000000000000E+000
 -2.380000000000000E-002    0.000000000000000E+000
 -2.370000000000000E-002    0.000000000000000E+000
 -2.360000000000000E-002    0.000000000000000E+000
 -2.350000000000000E-002    0.000000000000000E+000
 -2.340000000000000E-002    0.000000000000000E+000
 -2.330000000000000E-002    0.000000000000000E+000
 -2.320000000000000E-002    0.000000000000000E+000
 -2.310000000000000E-002    0.000000000000000E+000
 -2.300000000000000E-002    0.000000000000000E+000
 -2.290000000000000E-002    0.000000000000000E+000
 -2.280000000000000E-002    0.000000000000000E+000
 -2.270000000000000E-002    0.000000000000000E+000
 -2.260000000000000E-002    0.000000000000000E+000
 -2.250000000000000E-002    0.000000000000000E+000
 -2.240000000000000E-002    0.000000000000000E+000
 -2.230000000000000E-002    0.000000000000000E+000
 -2.220000000000000E-002    0.000000000000000E+000
 -2.210000000000000E-002    0.000000000000000E+000
 -2.200000000000000E-002    0.000000000000000E+000
 -2.190000000000000E-002    0.000000000000000E+000
 -2.180000000000000E-002    0.000000000000000E+000
 -2.170000000000000E-002    0.000000000000000E+000
 -2.160000000000000E-002    0.000000000000000E+000
 -2.150000000000000E-002    0.000000000000000E+000
 -2.140000000000000E-002    0.000000000000000E+000
 -2.130000000000000E-002    0.000000000000000E+000
 -2.120000000000000E-002    0.000000000000000E+000
 -2.110000000000000E-002    0.000000000000000E+000
 -2.100000000000000E-002    0.000000000000000E+000
 -2.090000000000000E-002    0.000000000000000E+000
 -2.080000000000000E-002    0.000000000000000E+000
 -2.070000000000000E-002    0.000000000000000E+000
 -2.060000000000000E-002    0.000000000000000E+000
 -2.050000000000000E-002    0.000000000000000E+000
 -2.040000000000000E-002    0.000000000000000E+000
 -2.030000000000000E-002    0.000000000000000E+000
 -2.020000000000000E-002    0.000000000000000E+000
 -2.010000000000000E-002    0.000000000000000E+000
 -2.000000000000000E-002    0.000000000000000E+000
 -1.990000000000000E-002    0.000000000000000E+000
 -1.980000000000000E-002    0.000000000000000E+000
 -1.970000000000000E-002    0.000000000000000E+000
 -1.960000000000000E-002    0.000000000000000E+000
 -1.950000000000000E-002   -3.088009472113155E-048
 -1.940000000000000E-002   -3.088009472113155E-048
 -1.930000000000000E-002   -3.088009472113155E-048
 -1.920000000000000E-002    0.000000000000000E+000
 -1.910000000000000E-002    6.176018944226310E-048
 -1.900000000000000E-002    1.235203788845262E-047
 -1.890000000000000E-002    2.161606630479208E-047
 -1.880000000000000E-002    3.993825598937894E-047
 -1.870000000000000E-002    8.668856417491196E-047
 -1.860000000000000E-002    1.083635005241267E-046
 -1.850000000000000E-002    1.176863989848888E-046
 -1.840000000000000E-002    9.942307934472466E-047
 -1.830000000000000E-002    6.903856410892742E-047
 -1.820000000000000E-002   -4.791760750181312E-047
 -1.810000000000000E-002   -2.007127002522475E-046
 -1.800000000000000E-002   -5.351107496550261E-046
 -1.790000000000000E-002   -9.006824117121729E-046
 -1.780000000000000E-002   -1.250579262268046E-045
 -1.770000000000000E-002   -1.640144610916966E-045
 -1.760000000000000E-002   -1.592398764822059E-045
 -1.750000000000000E-002   -1.122782573797893E-045
 -1.740000000000000E-002   -5.371586203092850E-047
 -1.730000000000000E-002    1.659550650813825E-045
 -1.720000000000000E-002    3.687607881233552E-045
 -1.710000000000000E-002    6.152089463901836E-045
 -1.700000000000000E-002    8.725801298081222E-045
 -1.690000000000000E-002    1.121274767790246E-044
 -1.680000000000000E-002    1.281354206561105E-044
 -1.670000000000000E-002    1.284537722521596E-044
 -1.660000000000000E-002    1.013606753035336E-044
 -1.650000000000000E-002    2.550314437686137E-045
 -1.640000000000000E-002   -1.022623235431952E-044
 -1.630000000000000E-002   -2.862913088630327E-044
 -1.620000000000000E-002   -5.144326213945811E-044
 -1.610000000000000E-002   -7.645470218349884E-044
 -1.600000000000000E-002   -1.001575064086674E-043
 -1.590000000000000E-002   -1.171256316655682E-043
 -1.580000000000000E-002   -1.189975101788626E-043
 -1.570000000000000E-002   -9.651881704337219E-044
 -1.560000000000000E-002   -4.015620639179954E-044
 -1.550000000000000E-002    5.717963865164402E-044
 -1.540000000000000E-002    1.974565713221223E-043
 -1.530000000000000E-002    3.756601808379169E-043
 -1.520000000000000E-002    5.750094247053616E-043
 -1.510000000000000E-002    7.668598028118595E-043
 -1.500000000000000E-002    9.070841056604358E-043
 -1.490000000000000E-002    9.384567185741760E-043
 -1.480000000000000E-002    7.958514989852526E-043
 -1.470000000000000E-002    4.136652835895640E-043
 -1.460000000000000E-002   -2.615366340585261E-043
 -1.450000000000000E-002   -1.248879998264297E-042
 -1.440000000000000E-002   -2.519206567694682E-042
 -1.430000000000000E-002   -3.966672883793745E-042
 -1.420000000000000E-002   -5.397647080057127E-042
 -1.410000000000000E-002   -6.519229813916102E-042
 -1.400000000000000E-002   -6.946903142848001E-042
 -1.390000000000000E-002   -6.232650043851048E-042
 -1.380000000000000E-002   -3.920923439651712E-042
 -1.370000000000000E-002    3.653472263608032E-043
 -1.360000000000000E-002    6.810355196805699E-042
 -1.350000000000000E-002    1.527676387620540E-041
 -1.340000000000000E-002    2.516278379313640E-041
 -1.330000000000000E-002    3.528865944123191E-041
 -1.320000000000000E-002    4.383192470062775E-041
 -1.310000000000000E-002    4.835737184387301E-041
 -1.300000000000000E-002    4.597869465185157E-041
 -1.290000000000000E-002    3.368594936989999E-041
 -1.280000000000000E-002    8.855445449591711E-042
 -1.270000000000000E-002   -3.005774939685170E-041
 -1.260000000000000E-002   -8.270440966586387E-041
 -1.250000000000000E-002   -1.459772417081576E-040
 -1.240000000000000E-002   -2.132594643902891E-040
 -1.230000000000000E-002   -2.739694611576288E-040
 -1.220000000000000E-002   -3.136284939121396E-040
 -1.210000000000000E-002   -3.146974552282189E-040
 -1.200000000000000E-002   -2.583823382683155E-040
 -1.190000000000000E-002   -1.275250317414390E-040
 -1.180000000000000E-002    8.944217480406658E-041
 -1.170000000000000E-002    3.937290242781437E-040
 -1.160000000000000E-002    7.711038341349292E-040
 -1.150000000000000E-002    1.187312692683303E-039
 -1.140000000000000E-002    1.585051528829278E-039
 -1.130000000000000E-002    1.883794061622942E-039
 -1.120000000000000E-002    1.983789619546452E-039
 -1.110000000000000E-002    1.775403397747355E-039
 -1.100000000000000E-002    1.154483263012766E-039
 -1.090000000000000E-002    4.365875947694259E-041
 -1.080000000000000E-002   -1.581674494130433E-039
 -1.070000000000000E-002   -3.665329938171204E-039
 -1.060000000000000E-002   -6.044465190230953E-039
 -1.050000000000000E-002   -8.431493025286020E-039
 -1.040000000000000E-002   -1.041043547794043E-038
 -1.030000000000000E-002   -1.145463684667031E-038
 -1.020000000000000E-002   -1.097183600431368E-038
 -1.010000000000000E-002   -8.380251696345492E-039
 -1.000000000000000E-002   -3.215273484679447E-039
 -9.899999999999999E-003    4.739299103801983E-039
 -9.800000000000000E-003    1.530844378449793E-038
 -9.699999999999999E-003    2.779192176285714E-038
 -9.599999999999999E-003    4.086632293004720E-038
 -9.500000000000000E-003    5.255512487789901E-038
 -9.399999999999999E-003    6.029960949292436E-038
 -9.299999999999999E-003    6.115904344799168E-038
 -9.200000000000000E-003    5.215720721865768E-038
 -9.099999999999999E-003    3.077348892719571E-038
 -8.999999999999999E-003   -4.448771372111911E-039
 -8.900000000000000E-003   -5.323520442097444E-038
 -8.799999999999999E-003   -1.129453912249444E-037
 -8.699999999999999E-003   -1.780902087388937E-037
 -8.600000000000000E-003   -2.401408989579131E-037
 -8.499999999999999E-003   -2.877722355065921E-037
 -8.399999999999999E-003   -3.076611075192280E-037
 -8.300000000000000E-003   -2.859140268046171E-037
 -8.199999999999999E-003   -2.101166044572301E-037
 -8.100000000000000E-003   -7.189438303804643E-038
 -8.000000000000000E-003    1.302516293145407E-037
 -7.899999999999999E-003    3.881987942549955E-037
 -7.800000000000000E-003    6.820230411982924E-037
 -7.699999999999999E-003    9.789343335250187E-037
 -7.599999999999999E-003    1.233882363873785E-036
 -7.499999999999999E-003    1.392306044595803E-036
 -7.399999999999999E-003    1.395316595254771E-036
 -7.299999999999999E-003    1.187309215449730E-036
 -7.199999999999999E-003    7.256176052660903E-037
 -7.100000000000000E-003   -8.617665628637648E-039
 -6.999999999999999E-003   -9.996500052338657E-037
 -6.899999999999999E-003   -2.188062669806128E-036
 -6.800000000000000E-003   -3.465357291650243E-036
 -6.699999999999999E-003   -4.674133604788158E-036
 -6.599999999999999E-003   -5.615537678802925E-036
 -6.499999999999999E-003   -6.065067803844415E-036
 -6.399999999999999E-003   -5.796909387871416E-036
 -6.299999999999999E-003   -4.615774756196245E-036
 -6.199999999999999E-003   -2.393859737332424E-036
 -6.100000000000000E-003    8.908482310954948E-037
 -5.999999999999999E-003    5.119869839462378E-036
 -5.899999999999999E-003    1.000891175784236E-035
 -5.800000000000000E-003    1.509787500178546E-035
 -5.699999999999999E-003    1.976159052990075E-035
 -5.599999999999999E-003    2.324527673016149E-035
 -5.499999999999999E-003    2.472643488888277E-035
 -5.399999999999999E-003    2.340198733120656E-035
 -5.299999999999999E-003    1.859603572596700E-035
 -5.199999999999999E-003    9.880043539339516E-036
 -5.099999999999999E-003   -2.805901836036914E-036
 -4.999999999999999E-003   -1.904473300873942E-035
 -4.899999999999999E-003   -3.786237170160134E-035
 -4.799999999999999E-003   -5.769163881392494E-035
 -4.699999999999999E-003   -7.639411826405883E-035
 -4.599999999999999E-003   -9.135153886319359E-035
 -4.499999999999999E-003   -9.963328239005570E-035
 -4.399999999999999E-003   -9.824166192820610E-035
 -4.299999999999999E-003   -8.442949187382580E-035
 -4.199999999999999E-003   -5.607763576587284E-035
 -4.099999999999999E-003   -1.211142132549248E-035
 -3.999999999999999E-003    4.707322773671223E-035
 -3.899999999999999E-003    1.192125068872513E-034
 -3.799999999999999E-003    1.998541894875123E-034
 -3.699999999999999E-003    2.821702177193389E-034
 -3.599999999999999E-003    3.569661994261189E-034
 -3.499999999999999E-003    4.129551804849298E-034
 -3.399999999999999E-003    4.373602816230630E-034
 -3.299999999999999E-003    4.168988779389362E-034
 -3.199999999999999E-003    3.391771796074663E-034
 -3.099999999999999E-003    1.944828114825439E-034
 -2.999999999999999E-003   -2.209426034357223E-035
 -2.899999999999999E-003   -3.083560275650038E-034
 -2.799999999999999E-003   -6.527357067246034E-034
 -2.699999999999999E-003   -1.032401046027010E-033
 -2.599999999999999E-003   -1.412122161298531E-033
 -2.499999999999999E-003   -1.744353840192321E-033
 -2.399999999999999E-003   -1.970988921739184E-033
 -2.299999999999999E-003   -2.027174858801219E-033
 -2.199999999999999E-003   -1.847434030652614E-033
 -2.099999999999999E-003   -1.374086068875532E-033
 -1.999999999999999E-003   -5.676305141894775E-034
 -1.899999999999999E-003    5.816629183841521E-034
 -1.799999999999999E-003    2.042153736658083E-033
 -1.699999999999999E-003    3.730847390103533E-033
 -1.599999999999999E-003    5.506983937695877E-033
 -1.499999999999999E-003    7.171310368666710E-033
 -1.399999999999999E-003    8.473044565670230E-033
 -1.299999999999999E-003    9.126110107420447E-033
 -1.199999999999999E-003    8.835421996340110E-033
 -1.099999999999999E-003    7.332847258615856E-033
 -9.999999999999989E-004    4.421004718363797E-033
 -8.999999999999990E-004    2.142662647626460E-035
 -7.999999999999990E-004   -5.778043803212103E-033
 -6.999999999999989E-004   -1.268315936226048E-032
 -5.999999999999990E-004   -2.016794137401553E-032
 -4.999999999999989E-004   -2.747175587359778E-032
 -3.999999999999989E-004   -3.362568409002487E-032
 -2.999999999999989E-004   -3.751308580148552E-032
 -1.999999999999989E-004   -3.796632683379509E-032
 -9.999999999999892E-005   -3.389748288518499E-032
  1.084202172485504E-018   -2.445602827715670E-032
  1.000000000000011E-004   -9.201363311228793E-033
  2.000000000000011E-004    1.172691533732046E-032
  3.000000000000011E-004    3.746221020011165E-032
  4.000000000000011E-004    6.631129707304681E-032
  5.000000000000011E-004    9.572595074793748E-032
  6.000000000000011E-004    1.223677000447865E-031
  7.000000000000011E-004    1.422822997826505E-031
  8.000000000000011E-004    1.511920781738095E-031
  9.000000000000012E-004    1.449035677497708E-031
  1.000000000000001E-003    1.198140569141201E-031
  1.100000000000001E-003    7.348669145822556E-032
  1.200000000000001E-003    5.247962454994435E-033
  1.300000000000001E-003   -8.325166691158222E-032
  1.400000000000001E-003   -1.875848755369829E-031
  1.500000000000001E-003   -3.002798928697765E-031
  1.600000000000001E-003   -4.108167191702814E-031
  1.700000000000001E-003   -5.059588392366548E-031
  1.800000000000001E-003   -5.704766240083612E-031
  1.900000000000001E-003   -5.882928538461227E-031
  2.000000000000001E-003   -5.440444029899075E-031
  2.100000000000001E-003   -4.250077361815689E-031
  2.200000000000001E-003   -2.232821723676687E-031
  2.300000000000001E-003    6.193673893584573E-032
  2.400000000000001E-003    4.222200515113085E-031
  2.500000000000001E-003    8.381863266314678E-031
  2.600000000000001E-003    1.278520480713878E-030
  2.700000000000001E-003    1.700065701932722E-030
  2.800000000000001E-003    2.049302242019382E-030
  2.900000000000001E-003    2.265463214674299E-030
  3.000000000000001E-003    2.285417070284703E-030
  3.100000000000001E-003    2.050280271173762E-030
  3.200000000000001E-003    1.513496414606339E-030
  3.300000000000001E-003    6.498621223315297E-031
  3.400000000000001E-003   -5.352991907174908E-031
  3.500000000000001E-003   -1.997875885878517E-030
  3.600000000000001E-003   -3.648891228198766E-030
  3.700000000000001E-003   -5.351992164711722E-030
  3.800000000000001E-003   -6.925859206382712E-030
  3.900000000000001E-003   -8.152672077839615E-030
  4.000000000000001E-003   -8.793356073496444E-030
  4.100000000000001E-003   -8.609693870058275E-030
  4.200000000000001E-003   -7.392562192647092E-030
  4.300000000000001E-003   -4.994589787163107E-030
  4.400000000000001E-003   -1.364514420995545E-030
  4.500000000000001E-003    3.420438616307688E-030
  4.600000000000002E-003    9.128583404150936E-030
  4.700000000000001E-003    1.535903158731926E-029
  4.800000000000001E-003    2.154291720196449E-029
  4.900000000000002E-003    2.696463240222411E-029
  5.000000000000001E-003    3.080572711683377E-029
  5.100000000000001E-003    3.221214497298317E-029
  5.200000000000001E-003    3.038282969738016E-029
  5.300000000000002E-003    2.467474668979751E-029
  5.400000000000001E-003    1.471629286950075E-029
  5.500000000000001E-003    5.181076164626078E-031
  5.600000000000002E-003   -1.743197276760239E-029
  5.700000000000001E-003   -3.810436912303573E-029
  5.800000000000001E-003   -5.990813313035300E-029
  5.900000000000002E-003   -8.072899661965846E-029
  6.000000000000001E-003   -9.803449543718331E-029
  6.100000000000001E-003   -1.090500549552784E-028
  6.200000000000002E-003   -1.110033785593067E-028
  6.300000000000002E-003   -1.014261480272062E-028
  6.400000000000001E-003   -7.849392240238230E-029
  6.500000000000001E-003   -4.137641265578952E-029
  6.600000000000002E-003    9.436585988497666E-030
  6.700000000000001E-003    7.187346194724924E-029
  6.800000000000001E-003    1.421252825519835E-028
  6.900000000000002E-003    2.146367231367538E-028
  7.000000000000001E-003    2.822776074314576E-028
  7.100000000000001E-003    3.367185634870686E-028
  7.200000000000002E-003    3.690184197616669E-028
  7.300000000000002E-003    3.704119128977684E-028
  7.400000000000001E-003    3.332634294655486E-028
  7.500000000000001E-003    2.521274117725605E-028
  7.600000000000002E-003    1.248326960971368E-028
  7.700000000000001E-003   -4.651416478962603E-029
  7.800000000000001E-003   -2.547282553839327E-028
  7.900000000000001E-003   -4.870773284576204E-028
  8.000000000000002E-003   -7.252716106358101E-028
  8.100000000000001E-003   -9.460231565170230E-028
  8.200000000000001E-003   -1.122253994678686E-027
  8.300000000000002E-003   -1.224986155425079E-027
  8.400000000000001E-003   -1.225882223627399E-027
  8.500000000000002E-003   -1.100332270813007E-027
  8.600000000000002E-003   -8.309005360995001E-028
  8.700000000000001E-003   -4.108573430445753E-028
  8.800000000000002E-003    1.525486568922621E-028
  8.900000000000002E-003    8.354869986456814E-028
  9.000000000000001E-003    1.596047028858075E-027
  9.100000000000002E-003    2.374269567601042E-027
  9.200000000000002E-003    3.094077726206261E-027
  9.300000000000001E-003    3.667359914688449E-027
  9.400000000000002E-003    4.000293273850595E-027
  9.500000000000001E-003    4.001765644235533E-027
  9.600000000000001E-003    3.593510613636056E-027
  9.700000000000002E-003    2.721277658584317E-027
  9.800000000000001E-003    1.366096504671595E-027
  9.900000000000001E-003   -4.455349566171924E-028
  1.000000000000000E-002   -2.633874625195545E-027
  1.010000000000000E-002   -5.061945623673852E-027
  1.020000000000000E-002   -7.536618562822130E-027
  1.030000000000000E-002   -9.815810574743649E-027
  1.040000000000000E-002   -1.162239935873817E-026
  1.050000000000000E-002   -1.266491172983440E-026
  1.060000000000000E-002   -1.266430386055128E-026
  1.070000000000000E-002   -1.138537620485584E-026
  1.080000000000000E-002   -8.670576482683879E-027
  1.090000000000000E-002   -4.473187578335127E-027
  1.100000000000000E-002    1.113644694413305E-027
  1.110000000000000E-002    7.835917626854031E-027
  1.120000000000000E-002    1.526966348045668E-026
  1.130000000000000E-002    2.282713578464975E-026
  1.140000000000000E-002    2.978085952490860E-026
  1.150000000000000E-002    3.530681948535397E-026
  1.160000000000000E-002    3.854635014398018E-026
  1.170000000000000E-002    3.868442380514242E-026
  1.180000000000000E-002    3.503979911111058E-026
  1.190000000000000E-002    2.716053250225836E-026
  1.200000000000000E-002    1.491648465610646E-026
  1.210000000000000E-002   -1.420891939895385E-027
  1.220000000000000E-002   -2.112188824642344E-026
  1.230000000000000E-002   -4.297515970414814E-026
  1.240000000000000E-002   -6.530653133800966E-026
  1.250000000000000E-002   -8.604668526475915E-026
  1.260000000000000E-002   -1.028508874033527E-025
  1.270000000000000E-002   -1.132696002340200E-025
  1.280000000000000E-002   -1.149637023118210E-025
  1.290000000000000E-002   -1.059525940565310E-025
  1.300000000000000E-002   -8.487795052098466E-026
  1.310000000000000E-002   -5.126092106967557E-026
  1.320000000000000E-002   -5.726978987265719E-027
  1.330000000000000E-002    4.982958179327628E-026
  1.340000000000000E-002    1.121692934129946E-025
  1.350000000000000E-002    1.767441875660114E-025
  1.360000000000000E-002    2.378667616599137E-025
  1.370000000000000E-002    2.890215548444945E-025
  1.380000000000000E-002    3.233180613499179E-025
  1.390000000000000E-002    3.340703763768601E-025
  1.400000000000000E-002    3.154737405003766E-025
  1.410000000000000E-002    2.633322250445798E-025
  1.420000000000000E-002    1.757791279037635E-025
  1.430000000000000E-002    5.391942530603927E-026
  1.440000000000000E-002   -9.768218799811399E-026
  1.450000000000000E-002   -2.707451890118881E-025
  1.460000000000000E-002   -4.533188046023153E-025
  1.470000000000000E-002   -6.301847285174475E-025
  1.480000000000000E-002   -7.836487104356298E-025
  1.490000000000000E-002   -8.947212143354844E-025
  1.500000000000000E-002   -9.446507896628467E-025
  1.510000000000000E-002   -9.167325227758478E-025
  1.520000000000000E-002   -7.982729350627451E-025
  1.530000000000000E-002   -5.825549381163044E-025
  1.540000000000000E-002   -2.706166499065998E-025
  1.550000000000000E-002    1.273588769311021E-025
  1.560000000000000E-002    5.912476614288271E-025
  1.570000000000000E-002    1.090968988711878E-024
  1.580000000000000E-002    1.587394411614885E-024
  1.590000000000000E-002    2.034270340002227E-024
  1.600000000000000E-002    2.381158749266905E-024
  1.610000000000000E-002    2.577307679333575E-024
  1.620000000000000E-002    2.576263346905517E-024
  1.630000000000000E-002    2.340926524832298E-024
  1.640000000000000E-002    1.848671602505987E-024
  1.650000000000000E-002    1.096062765755863E-024
  1.660000000000000E-002    1.026680608509173E-025
  1.670000000000000E-002   -1.086539587409648E-024
  1.680000000000000E-002   -2.400658674593614E-024
  1.690000000000000E-002   -3.744590514651543E-024
  1.700000000000000E-002   -5.003261273126116E-024
  1.710000000000000E-002   -6.048385976188710E-024
  1.720000000000000E-002   -6.747605760181151E-024
  1.730000000000000E-002   -6.975591232334329E-024
  1.740000000000000E-002   -6.626454850763462E-024
  1.750000000000000E-002   -5.626598532879963E-024
  1.760000000000000E-002   -3.946929149916989E-024
  1.770000000000000E-002   -1.613247848636716E-024
  1.780000000000000E-002    1.286398344234144E-024
  1.790000000000000E-002    4.598578229773360E-024
  1.800000000000000E-002    8.106536696061681E-024
  1.810000000000000E-002    1.153815445584056E-023
  1.820000000000000E-002    1.458010697594620E-023
  1.830000000000000E-002    1.689804954287987E-023
  1.840000000000000E-002    1.816208108376982E-023
  1.850000000000000E-002    1.807617331617788E-023
  1.860000000000000E-002    1.640968863247748E-023
  1.870000000000000E-002    1.302861706758234E-023