 -4.000000000000000E-002    0.000000000000000E+000
 -3.990000000000000E-002    0.000000000000000E+000
 -3.980000000000000E-002    0.000000000000000E+000
 -3.970000000000000E-002    2.054027993058414E-016
 -3.960000000000000E-002    1.086644474388306E-015
 -3.950000000000000E-002    2.853148429195361E-015
 -3.940000000000000E-002    4.254389359676511E-015
 -3.930000000000000E-002    1.341190576690312E-015
 -3.920000000000000E-002   -1.243568574470824E-014
 -3.910000000000000E-002   -4.316675693910541E-014
 -3.900000000000000E-002   -8.965034152872820E-014
 -3.890000000000000E-002   -1.341654899662193E-013
 -3.880000000000000E-002   -1.357340995938921E-013
 -3.870000000000000E-002   -3.493605244748043E-014
 -3.860000000000000E-002    2.170166398709552E-013
 -3.850000000000000E-002    5.907406966754687E-013
 -3.840000000000000E-002    8.607814451696212E-013
 -3.830000000000000E-002    4.328626321335413E-013
 -3.820000000000000E-002   -1.875165078739290E-012
 -3.810000000000000E-002   -8.072389630280164E-012
 -3.800000000000000E-002   -2.120734609681909E-011
 -3.790000000000000E-002   -4.548829901695154E-011
 -3.780000000000000E-002   -8.623238799341199E-011
 -3.770000000000000E-002   -1.495625072316180E-010
 -3.760000000000000E-002   -2.417834325557244E-010
 -3.750000000000000E-002   -3.683995039132081E-010
 -3.740000000000000E-002   -5.327850746508659E-010
 -3.730000000000000E-002   -7.345815665430486E-010
 -3.720000000000000E-002   -9.679664185955578E-010
 -3.710000000000000E-002   -1.220008520700924E-009
 -3.700000000000000E-002   -1.469378420644883E-009
 -3.690000000000000E-002   -1.685712487498534E-009
 -3.680000000000000E-002   -1.829920298869688E-009
 -3.670000000000000E-002   -1.855671344548651E-009
 -3.660000000000000E-002   -1.712201389543480E-009
 -3.650000000000000E-002   -1.348433841876871E-009
 -3.640000000000000E-002   -7.182472305475607E-010
 -3.630000000000000E-002    2.134662570207281E-010
 -3.620000000000000E-002    1.464469137681399E-009
 -3.610000000000000E-002    3.029231035829754E-009
 -3.600000000000000E-002    4.874085399972898E-009
 -3.590000000000000E-002    6.934209245937780E-009
 -3.580000000000000E-002    9.113044405829887E-009
 -3.570000000000000E-002    1.128459469992135E-008
 -3.560000000000000E-002    1.329876399120417E-008
 -3.550000000000000E-002    1.498960298650980E-008
 -3.540000000000000E-002    1.618597184557131E-008
 -3.530000000000000E-002    1.672385347869641E-008
 -3.520000000000000E-002    1.645926688033584E-008
 -3.510000000000000E-002    1.528061488898042E-008
 -3.500000000000000E-002    1.311927378774459E-008
 -3.490000000000000E-002    9.957345117077098E-009
 -3.480000000000000E-002    5.831759543398704E-009
 -3.470000000000000E-002    8.342902400599761E-010
 -3.460000000000000E-002   -4.892523166643670E-009
 -3.450000000000000E-002   -1.116307655790317E-008
 -3.440000000000000E-002   -1.775914180228937E-008
 -3.430000000000000E-002   -2.444182696186566E-008
 -3.420000000000000E-002   -3.096365726226928E-008
 -3.410000000000000E-002   -3.707938422039959E-008
 -3.400000000000000E-002   -4.255432129669900E-008
 -3.390000000000000E-002   -4.716937618504096E-008
 -3.380000000000000E-002   -5.072247687895712E-008
 -3.370000000000000E-002   -5.302668128988887E-008
 -3.360000000000000E-002   -5.390584554839662E-008
 -3.350000000000000E-002   -5.318930066526770E-008
 -3.340000000000000E-002   -5.070729081876828E-008
 -3.330000000000000E-002   -4.628909865073046E-008
 -3.320000000000000E-002   -3.976564072827120E-008
 -3.310000000000000E-002   -3.097789526357821E-008
 -3.300000000000000E-002   -1.979186092016657E-008
 -3.290000000000000E-002   -6.119852711466802E-009
 -3.280000000000000E-002    1.005302525718168E-008
 -3.270000000000000E-002    2.863938062621359E-008
 -3.260000000000000E-002    4.942000991094444E-008
 -3.250000000000000E-002    7.201796042610324E-008
 -3.240000000000000E-002    9.588004444162675E-008
 -3.230000000000000E-002    1.202695423904179E-007
 -3.220000000000000E-002    1.442732012117580E-007
 -3.210000000000000E-002    1.668246053111399E-007
 -3.200000000000000E-002    1.867446588113883E-007
 -3.190000000000000E-002    2.027982833707742E-007
 -3.180000000000000E-002    2.137647182434818E-007
 -3.170000000000000E-002    2.185172304818888E-007
 -3.160000000000000E-002    2.161066023144323E-007
 -3.150000000000000E-002    2.058420315388468E-007
 -3.140000000000000E-002    1.873623791299273E-007
 -3.130000000000000E-002    1.606912726059752E-007
 -3.120000000000000E-002    1.262703112132495E-007
 -3.110000000000000E-002    8.496598518715806E-008
 -3.100000000000000E-002    3.804819208237886E-008
 -3.090000000000000E-002   -1.285974796995560E-008
 -3.080000000000000E-002   -6.585708004304771E-008
 -3.070000000000000E-002   -1.188628859542411E-007
 -3.060000000000000E-002   -1.697278678666487E-007
 -3.050000000000000E-002   -2.163525023285803E-007
 -3.040000000000000E-002   -2.568025623495978E-007
 -3.030000000000000E-002   -2.894130391237975E-007
 -3.020000000000000E-002   -3.128723713687010E-007
 -3.010000000000000E-002   -3.262802604746745E-007
 -3.000000000000000E-002   -3.291746326787801E-007
 -2.990000000000000E-002   -3.215259400991690E-007
 -2.980000000000000E-002   -3.036994697132810E-007
 -2.970000000000000E-002   -2.763894664995172E-007
 -2.960000000000000E-002   -2.405307420057662E-007
 -2.950000000000000E-002   -1.971958971382687E-007
 -2.940000000000000E-002   -1.474869320392047E-007
 -2.930000000000000E-002   -9.243072390270052E-008
 -2.920000000000000E-002   -3.288725233871444E-008
 -2.910000000000000E-002    3.052179652283466E-008
 -2.900000000000000E-002    9.745822384415538E-008
 -2.890000000000000E-002    1.678830255116972E-007
 -2.880000000000000E-002    2.420418771180645E-007
 -2.870000000000000E-002    3.204223627042740E-007
 -2.860000000000000E-002    4.036875345184181E-007
 -2.850000000000000E-002    4.925919389409310E-007
 -2.840000000000000E-002    5.878886335552086E-007
 -2.830000000000000E-002    6.902354510630166E-007
 -2.820000000000000E-002    8.001095287370750E-007
 -2.810000000000000E-002    9.177378142230152E-007
 -2.800000000000000E-002    1.043050211137788E-006
 -2.790000000000000E-002    1.175660476586691E-006
 -2.780000000000000E-002    1.314876842544573E-006
 -2.770000000000000E-002    1.459741836410176E-006
 -2.760000000000000E-002    1.609099926094186E-006
 -2.750000000000000E-002    1.761686587697105E-006
 -2.740000000000000E-002    1.916233697698994E-006
 -2.730000000000000E-002    2.071581331900922E-006
 -2.720000000000000E-002    2.226787802848803E-006
 -2.710000000000000E-002    2.381228242225451E-006
 -2.700000000000000E-002    2.534673187683960E-006
 -2.690000000000000E-002    2.687338000419385E-006
 -2.680000000000000E-002    2.839898872351751E-006
 -2.670000000000000E-002    2.993469346543334E-006
 -2.660000000000000E-002    3.149537271376150E-006
 -2.650000000000000E-002    3.309862183848874E-006
 -2.640000000000000E-002    3.476339265608196E-006
 -2.630000000000000E-002    3.650834382556503E-006
 -2.620000000000000E-002    3.835002139147975E-006
 -2.610000000000000E-002    4.030096247852648E-006
 -2.600000000000000E-002    4.236787663391977E-006
 -2.590000000000000E-002    4.455000517946839E-006
 -2.580000000000000E-002    4.683783387619860E-006
 -2.570000000000000E-002    4.921222800173193E-006
 -2.560000000000000E-002    5.164410754684469E-006
 -2.550000000000000E-002    5.409472987540567E-006
 -2.540000000000000E-002    5.651658463970100E-006
 -2.530000000000000E-002    5.885488035778763E-006
 -2.520000000000000E-002    6.104956344297256E-006
 -2.510000000000000E-002    6.303775303381915E-006
 -2.500000000000000E-002    6.475645927830920E-006
 -2.490000000000000E-002    6.614538950621048E-006
 -2.480000000000000E-002    6.714967324821513E-006
 -2.470000000000000E-002    6.772230196602106E-006
 -2.460000000000000E-002    6.782616512564081E-006
 -2.450000000000000E-002    6.743542854680270E-006
 -2.440000000000000E-002    6.653625735449285E-006
 -2.430000000000000E-002    6.512682780259475E-006
 -2.420000000000000E-002    6.321649119909114E-006
 -2.410000000000000E-002    6.082436129551672E-006
 -2.400000000000000E-002    5.797726214214036E-006
 -2.390000000000000E-002    5.470727739918865E-006
 -2.380000000000000E-002    5.104901425186290E-006
 -2.370000000000000E-002    4.703684517421146E-006
 -2.360000000000000E-002    4.270228357572435E-006
 -2.350000000000000E-002    3.807158546739950E-006
 -2.340000000000000E-002    3.316391264987153E-006
 -2.330000000000000E-002    2.798985120048363E-006
 -2.320000000000000E-002    2.255065169553604E-006
 -2.310000000000000E-002    1.683792429854180E-006
 -2.300000000000000E-002    1.083382807850279E-006
 -2.290000000000000E-002    4.511706536267825E-007
 -2.280000000000000E-002   -2.163034054341119E-007
 -2.270000000000000E-002   -9.231937962610438E-007
 -2.260000000000000E-002   -1.674241134808268E-006
 -2.250000000000000E-002   -2.474682359357413E-006
 -2.240000000000000E-002   -3.330180301921210E-006
 -2.230000000000000E-002   -4.246765289792472E-006
 -2.220000000000000E-002   -5.230822121512863E-006
 -2.210000000000000E-002   -6.289090627002711E-006
 -2.200000000000000E-002   -7.428677585774221E-006
 -2.190000000000000E-002   -8.657104232872683E-006
 -2.180000000000000E-002   -9.982338204932378E-006
 -2.170000000000000E-002   -1.141283478246640E-005
 -2.160000000000000E-002   -1.295755528719500E-005
 -2.150000000000000E-002   -1.462598656114169E-005
 -2.140000000000000E-002   -1.642812891436130E-005
 -2.130000000000000E-002   -1.837448865981928E-005
 -2.120000000000000E-002   -2.047602276864691E-005
 -2.110000000000000E-002   -2.274411005553587E-005
 -2.100000000000000E-002   -2.519050660246059E-005
 -2.090000000000000E-002   -2.782729567150832E-005
 -2.080000000000000E-002   -3.066687226160352E-005
 -2.070000000000000E-002   -3.372194329818943E-005
 -2.060000000000000E-002   -3.700553782976085E-005
 -2.050000000000000E-002   -4.053104651623473E-005
 -2.040000000000000E-002   -4.431228645953169E-005
 -2.030000000000000E-002   -4.836360685522513E-005
 -2.020000000000000E-002   -5.269996741457789E-005
 -2.010000000000000E-002   -5.733708291587741E-005
 -2.000000000000000E-002   -6.229152463578362E-005
 -1.990000000000000E-002   -6.758086349101108E-005
 -1.980000000000000E-002   -7.322379449847496E-005
 -1.970000000000000E-002   -7.924024019775374E-005
 -1.960000000000000E-002   -8.565146510177897E-005
 -1.950000000000000E-002   -9.248016666435400E-005
 -1.940000000000000E-002   -9.975061207508522E-005
 -1.930000000000000E-002   -1.074887026250402E-004
 -1.920000000000000E-002   -1.157220686413000E-004
 -1.910000000000000E-002   -1.244801993005534E-004
 -1.900000000000000E-002   -1.337945301533136E-004
 -1.890000000000000E-002   -1.436985624651421E-004
 -1.880000000000000E-002   -1.542280141883219E-004
 -1.870000000000000E-002   -1.654208929885081E-004
 -1.860000000000000E-002   -1.773176454061984E-004
 -1.850000000000000E-002   -1.899612405896091E-004
 -1.840000000000000E-002   -2.033973280447415E-004
 -1.830000000000000E-002   -2.176742699556361E-004
 -1.820000000000000E-002   -2.328431447829615E-004
 -1.810000000000000E-002   -2.489579091914334E-004
 -1.800000000000000E-002   -2.660753028360412E-004
 -1.790000000000000E-002   -2.842547975341373E-004
 -1.780000000000000E-002   -3.035586493545837E-004
 -1.770000000000000E-002   -3.240517506142607E-004
 -1.760000000000000E-002   -3.458016664100544E-004
 -1.750000000000000E-002   -3.688784666427931E-004
 -1.740000000000000E-002   -3.933548690979697E-004
 -1.730000000000000E-002   -4.193060643082014E-004
 -1.720000000000000E-002   -4.468099442443636E-004
 -1.710000000000000E-002   -4.759469876868806E-004
 -1.700000000000000E-002   -5.068006875965615E-004
 -1.690000000000000E-002   -5.394575300072731E-004
 -1.680000000000000E-002   -5.740072621493240E-004
 -1.670000000000000E-002   -6.105432845345346E-004
 -1.660000000000000E-002   -6.491630489112800E-004
 -1.650000000000000E-002   -6.899680654878121E-004
 -1.640000000000000E-002   -7.330646357665278E-004
 -1.630000000000000E-002   -7.785639313700539E-004
 -1.620000000000000E-002   -8.265826577775347E-004
 -1.610000000000000E-002   -8.772430807323315E-004
 -1.600000000000000E-002   -9.306735025233351E-004
 -1.590000000000000E-002   -9.870084836120848E-004
 -1.580000000000000E-002   -1.046389255798693E-003
 -1.570000000000000E-002   -1.108963571591238E-003
 -1.560000000000000E-002   -1.174886358525386E-003
 -1.550000000000000E-002   -1.244319619592909E-003
 -1.540000000000000E-002   -1.317432898832864E-003
 -1.530000000000000E-002   -1.394403249046985E-003
 -1.520000000000000E-002   -1.475415632365720E-003
 -1.510000000000000E-002   -1.560662699484933E-003
 -1.500000000000000E-002   -1.650345349941781E-003
 -1.490000000000000E-002   -1.744673220052556E-003
 -1.480000000000000E-002   -1.843863716745726E-003
 -1.470000000000000E-002   -1.948143795776830E-003
 -1.460000000000000E-002   -2.057748760764971E-003
 -1.450000000000000E-002   -2.172923468988367E-003
 -1.440000000000000E-002   -2.293921451162820E-003
 -1.430000000000000E-002   -2.421005977991580E-003
 -1.420000000000000E-002   -2.554449773722697E-003
 -1.410000000000000E-002   -2.694534982120111E-003
 -1.400000000000000E-002   -2.841553716489701E-003
 -1.390000000000000E-002   -2.995807752424110E-003
 -1.380000000000000E-002   -3.157608910375042E-003
 -1.370000000000000E-002   -3.327278894032051E-003
 -1.360000000000000E-002   -3.505150327127773E-003
 -1.350000000000000E-002   -3.691565818358218E-003
 -1.340000000000000E-002   -3.886879661231659E-003
 -1.330000000000000E-002   -4.091456924898556E-003
 -1.320000000000000E-002   -4.305674549927595E-003
 -1.310000000000000E-002   -4.529921183604495E-003
 -1.300000000000000E-002   -4.764598590579505E-003
 -1.290000000000000E-002   -5.010121709636346E-003
 -1.280000000000000E-002   -5.266918374815089E-003
 -1.270000000000000E-002   -5.535430998876082E-003
 -1.260000000000000E-002   -5.816115956351767E-003
 -1.250000000000000E-002   -6.109445803560438E-003
 -1.240000000000000E-002   -6.415907285256239E-003
 -1.230000000000000E-002   -6.736003450157828E-003
 -1.220000000000000E-002   -7.070252932338057E-003
 -1.210000000000000E-002   -7.419192307715912E-003
 -1.200000000000000E-002   -7.783372395230680E-003
 -1.190000000000000E-002   -8.163362445715328E-003
 -1.180000000000000E-002   -8.559747930525894E-003
 -1.170000000000000E-002   -8.973131729072022E-003
 -1.160000000000000E-002   -9.404134082415149E-003
 -1.150000000000000E-002   -9.853391539645531E-003
 -1.140000000000000E-002   -1.032155854257451E-002
 -1.130000000000000E-002   -1.080930639198980E-002
 -1.120000000000000E-002   -1.131732384217983E-002
 -1.110000000000000E-002   -1.184631705724796E-002
 -1.100000000000000E-002   -1.239700950628323E-002
 -1.090000000000000E-002   -1.297014151383735E-002
 -1.080000000000000E-002   -1.356647220314174E-002
 -1.070000000000000E-002   -1.418677724812788E-002
 -1.060000000000000E-002   -1.483185021393919E-002
 -1.050000000000000E-002   -1.550250112437001E-002
 -1.040000000000000E-002   -1.619956119275076E-002
 -1.030000000000000E-002   -1.692387612927689E-002
 -1.020000000000000E-002   -1.767631304467637E-002
 -1.010000000000000E-002   -1.845775421106093E-002
 -1.000000000000000E-002   -1.926909946533140E-002
 -9.899999999999999E-003   -2.011127078384731E-002
 -9.800000000000000E-003   -2.098520678526483E-002
 -9.699999999999999E-003   -2.189186202290818E-002
 -9.599999999999999E-003   -2.283221052566159E-002
 -9.500000000000000E-003   -2.380724551866800E-002
 -9.399999999999999E-003   -2.481797524292570E-002
 -9.299999999999999E-003   -2.586542735188779E-002
 -9.200000000000000E-003   -2.695064567955240E-002
 -9.099999999999999E-003   -2.807469115986001E-002
 -8.999999999999999E-003   -2.923864396807494E-002
 -8.900000000000000E-003   -3.044359212891302E-002
 -8.799999999999999E-003   -3.169064689370132E-002
 -8.699999999999999E-003   -3.298093473271300E-002
 -8.600000000000000E-003   -3.431558921869091E-002
 -8.499999999999999E-003   -3.569576775119211E-002
 -8.399999999999999E-003   -3.712263566556587E-002
 -8.300000000000000E-003   -3.859737433112478E-002
 -8.199999999999999E-003   -4.012117483645324E-002
 -8.100000000000000E-003   -4.169524457580200E-002
 -8.000000000000000E-003   -4.332080259886060E-002
 -7.899999999999999E-003   -4.499907682952689E-002
 -7.800000000000000E-003   -4.673130950458621E-002
 -7.699999999999999E-003   -4.851874702796449E-002
 -7.599999999999999E-003   -5.036264519160832E-002
 -7.499999999999999E-003   -5.226426960205998E-002
 -7.399999999999999E-003   -5.422488653649114E-002
 -7.299999999999999E-003   -5.624577599674851E-002
 -7.199999999999999E-003   -5.832821613425553E-002
 -7.100000000000000E-003   -6.047348234843385E-002
 -6.999999999999999E-003   -6.268285629451932E-002
 -6.899999999999999E-003   -6.495761918017433E-002
 -6.800000000000000E-003   -6.729905140722144E-002
 -6.699999999999999E-003   -6.970842034051408E-002
 -6.599999999999999E-003   -7.218699176451443E-002
 -6.499999999999999E-003   -7.473603220554435E-002
 -6.399999999999999E-003   -7.735678530684960E-002
 -6.299999999999999E-003   -8.005049742798802E-002
 -6.199999999999999E-003   -8.281839927603152E-002
 -6.100000000000000E-003   -8.566170722737258E-002
 -5.999999999999999E-003   -8.858162421666932E-002
 -5.899999999999999E-003   -9.157933866142809E-002
 -5.800000000000000E-003   -9.465601954597778E-002
 -5.699999999999999E-003   -9.781281157837496E-002
 -5.599999999999999E-003   -0.101050844424349     
 -5.499999999999999E-003   -0.104371215092518     
 -5.399999999999999E-003   -0.107774995994725     
 -5.299999999999999E-003   -0.111263240372612     
 -5.199999999999999E-003   -0.114836964700071     
 -5.099999999999999E-003   -0.118497141019168     
 -4.999999999999999E-003   -0.122244712829691     
 -4.899999999999999E-003   -0.126080599528650     
 -4.799999999999999E-003   -0.130005666927240     
 -4.699999999999999E-003   -0.134020727844371     
 -4.599999999999999E-003   -0.138126567092259     
 -4.499999999999999E-003   -0.142323919698523     
 -4.399999999999999E-003   -0.146613453966880     
 -4.299999999999999E-003   -0.150995812845298     
 -4.199999999999999E-003   -0.155471545399315     
 -4.099999999999999E-003   -0.160041180193966     
 -3.999999999999999E-003   -0.164705149230707     
 -3.899999999999999E-003   -0.169463846726575     
 -3.799999999999999E-003   -0.174317588292187     
 -3.699999999999999E-003   -0.179266630757486     
 -3.599999999999999E-003   -0.184311143124500     
 -3.499999999999999E-003   -0.189451212007305     
 -3.399999999999999E-003   -0.194686865375998     
 -3.299999999999999E-003   -0.200018046109748     
 -3.199999999999999E-003   -0.205444590841037     
 -3.099999999999999E-003   -0.210966272961388     
 -2.999999999999999E-003   -0.216582757625971     
 -2.899999999999999E-003   -0.222293607230146     
 -2.799999999999999E-003   -0.228098319085184     
 -2.699999999999999E-003   -0.233996274850266     
 -2.599999999999999E-003   -0.239986735230876     
 -2.499999999999999E-003   -0.246068857107384     
 -2.399999999999999E-003   -0.252241722065349     
 -2.299999999999999E-003   -0.258504253982405     
 -2.199999999999999E-003   -0.264855292823312     
 -2.099999999999999E-003   -0.271293558492867     
 -1.999999999999999E-003   -0.277817639554222     
 -1.899999999999999E-003   -0.284425991871707     
 -1.799999999999999E-003   -0.291116993411797     
 -1.699999999999999E-003   -0.297888871242351     
 -1.599999999999999E-003   -0.304739696355204     
 -1.499999999999999E-003   -0.311667440272812     
 -1.399999999999999E-003   -0.318669949651310     
 -1.299999999999999E-003   -0.325744898536686     
 -1.199999999999999E-003   -0.332889827410110     
 -1.099999999999999E-003   -0.340102196903359     
 -9.999999999999989E-004   -0.347379248393214     
 -8.999999999999990E-004   -0.354718112635528     
 -7.999999999999990E-004   -0.362115784884053     
 -6.999999999999989E-004   -0.369569104897379     
 -5.999999999999990E-004   -0.377074733050281     
 -4.999999999999989E-004   -0.384629231260763     
 -3.999999999999989E-004   -0.392228959818136     
 -2.999999999999989E-004   -0.399870142784788     
 -1.999999999999989E-004   -0.407548892770796     
 -9.999999999999892E-005   -0.415261078966988     
  1.084202172485504E-018   -0.423002496081391     
  1.000000000000011E-004   -0.430768746910553     
  2.000000000000011E-004   -0.438555257824615     
  3.000000000000011E-004   -0.446357390313034     
  4.000000000000011E-004   -0.454170239393239     
  5.000000000000011E-004   -0.461988767613561     
  6.000000000000011E-004   -0.469807836946888     
  7.000000000000011E-004   -0.477622160122068     
  8.000000000000011E-004   -0.485426196055895     
  9.000000000000012E-004   -0.493214357781869     
  1.000000000000001E-003   -0.500980899454785     
  1.100000000000001E-003   -0.508719879153829     
  1.200000000000001E-003   -0.516425186874951     
  1.300000000000001E-003   -0.524090627792562     
  1.400000000000001E-003   -0.531709856654311     
  1.500000000000001E-003   -0.539276378360922     
  1.600000000000001E-003   -0.546783534569032     
  1.700000000000001E-003   -0.554224520252906     
  1.800000000000001E-003   -0.561592442132032     
  1.900000000000001E-003   -0.568880303084577     
  2.000000000000001E-003   -0.576080896927680     
  2.100000000000001E-003   -0.583186971153581     
  2.200000000000001E-003   -0.590191131706748     
  2.300000000000001E-003   -0.597085874940279     
  2.400000000000001E-003   -0.603863552815051     
  2.500000000000001E-003   -0.610516474266027     
  2.600000000000001E-003   -0.617036782210917     
  2.700000000000001E-003   -0.623416585624049     
  2.800000000000001E-003   -0.629647943483850     
  2.900000000000001E-003   -0.635722706951194     
  3.000000000000001E-003   -0.641632803712598     
  3.100000000000001E-003   -0.647369983049709     
  3.200000000000001E-003   -0.652925959869722     
  3.300000000000001E-003   -0.658292465352522     
  3.400000000000001E-003   -0.663461056264190     
  3.500000000000001E-003   -0.668423380478184     
  3.600000000000001E-003   -0.673170941904548     
  3.700000000000001E-003   -0.677695230629899     
  3.800000000000001E-003   -0.681987828301020     
  3.900000000000001E-003   -0.686040208968031     
  4.000000000000001E-003   -0.689843878511418     
  4.100000000000001E-003   -0.693390324697382     
  4.200000000000001E-003   -0.696671126839815     
  4.300000000000001E-003   -0.699677782632069     
  4.400000000000001E-003   -0.702401888693576     
  4.500000000000001E-003   -0.704835143180865     
  4.600000000000002E-003   -0.706969143327917     
  4.700000000000001E-003   -0.708795696295900     
  4.800000000000001E-003   -0.710306662709784     
  4.900000000000002E-003   -0.711493949043261     
  5.000000000000001E-003   -0.712349506757998     
  5.100000000000001E-003   -0.712865450585612     
  5.200000000000001E-003   -0.713034027237589     
  5.300000000000002E-003   -0.712847568849897     
  5.400000000000001E-003   -0.712298598429579     
  5.500000000000001E-003   -0.711379715347731     
  5.600000000000002E-003   -0.710083679303140     
  5.700000000000001E-003   -0.708403469690400     
  5.800000000000001E-003   -0.706332207384289     
  5.900000000000002E-003   -0.703863160005297     
  6.000000000000001E-003   -0.700989902205120     
  6.100000000000001E-003   -0.697706091575757     
  6.200000000000002E-003   -0.694005638730079     
  6.300000000000002E-003   -0.689882791992531     
  6.400000000000001E-003   -0.685331916378011     
  6.500000000000001E-003   -0.680347659671479     
  6.600000000000002E-003   -0.674924923473793     
  6.700000000000001E-003   -0.669058906425140     
  6.800000000000001E-003   -0.662745102410650     
  6.900000000000002E-003   -0.655979222571665     
  7.000000000000001E-003   -0.648757334543249     
  7.100000000000001E-003   -0.641075820782624     
  7.200000000000002E-003   -0.632931349006223     
  7.300000000000002E-003   -0.624320916111556     
  7.400000000000001E-003   -0.615241854695058     
  7.500000000000001E-003   -0.605691865470912     
  7.600000000000002E-003   -0.595669003685535     
  7.700000000000001E-003   -0.585171672510790     
  7.800000000000001E-003   -0.574198667354770     
  7.900000000000001E-003   -0.562749079165402     
  8.000000000000002E-003   -0.550822498296583     
  8.100000000000001E-003   -0.538418814546205     
  8.200000000000001E-003   -0.525538353707462     
  8.300000000000002E-003   -0.512181829906144     
  8.400000000000001E-003   -0.498350368031752     
  8.500000000000002E-003   -0.484045490364198     
  8.600000000000002E-003   -0.469269189432543     
  8.700000000000001E-003   -0.454023852818405     
  8.800000000000002E-003   -0.438312298839092     
  8.900000000000002E-003   -0.422137757464594     
  9.000000000000001E-003   -0.405503918688720     
  9.100000000000002E-003   -0.388414898170879     
  9.200000000000002E-003   -0.370875229730293     
  9.300000000000001E-003   -0.352889952694807     
  9.400000000000002E-003   -0.334464490081650     
  9.500000000000001E-003   -0.315604730606647     
  9.600000000000001E-003   -0.296317028190612     
  9.700000000000002E-003   -0.276608162013693     
  9.800000000000001E-003   -0.256485358345887     
  9.900000000000001E-003   -0.235956291123436     
  1.000000000000000E-002   -0.215029089897988     
  1.010000000000000E-002   -0.193712290793505     
  1.020000000000000E-002   -0.172014900247794     
  1.030000000000000E-002   -0.149946347387771     
  1.040000000000000E-002   -0.127516487761395     
  1.050000000000000E-002   -0.104735607036174     
  1.060000000000000E-002   -8.161441061340249E-002
  1.070000000000000E-002   -5.816401907337794E-002
  1.080000000000000E-002   -3.439596822077585E-002
  1.090000000000000E-002   -1.032218782783390E-002
  1.100000000000000E-002    1.404498955588315E-002
  1.110000000000000E-002    3.869284491024196E-002
  1.120000000000000E-002    6.360827826922720E-002
  1.130000000000000E-002    8.877781647319463E-002
  1.140000000000000E-002    0.114187619250085     
  1.150000000000000E-002    0.139823495610997     
  1.160000000000000E-002    0.165670918576150     
  1.170000000000000E-002    0.191715008713599     
  1.180000000000000E-002    0.217940585303785     
  1.190000000000000E-002    0.244332129361807     
  1.200000000000000E-002    0.270873873249103     
  1.210000000000000E-002    0.297549743834259     
  1.220000000000000E-002    0.324343373795908     
  1.230000000000000E-002    0.351238142571606     
  1.240000000000000E-002    0.378217225544751     
  1.250000000000000E-002    0.405263517892191     
  1.260000000000000E-002    0.432359765376826     
  1.270000000000000E-002    0.459488425139717     
  1.280000000000000E-002    0.486631854731018     
  1.290000000000000E-002    0.513772189110903     
  1.300000000000000E-002    0.540891422159157     
  1.310000000000000E-002    0.567971440776430     
  1.320000000000000E-002    0.594993968596716     
  1.330000000000000E-002    0.621940633661496     
  1.340000000000000E-002    0.648793050255090     
  1.350000000000000E-002    0.675532674866660     
  1.360000000000000E-002    0.702140942432061     
  1.370000000000000E-002    0.728599290468342     
  1.380000000000000E-002    0.754889097574397     
  1.390000000000000E-002    0.780991768028956     
  1.400000000000000E-002    0.806888705453657     
  1.410000000000000E-002    0.832561431232717     
  1.420000000000000E-002    0.857991420011631     
  1.430000000000000E-002    0.883160273590936     
  1.440000000000000E-002    0.908049780019077     
  1.450000000000000E-002    0.932641686436880     
  1.460000000000000E-002    0.956917948018048     
  1.470000000000000E-002    0.980860784616420     
  1.480000000000000E-002     1.00445240634621     
  1.490000000000000E-002     1.02767519454231     
  1.500000000000000E-002     1.05051199656683     
  1.510000000000000E-002     1.07294556574222     
  1.520000000000000E-002     1.09495921077351     
  1.530000000000000E-002     1.11653619903690     
  1.540000000000000E-002     1.13766032351550     
  1.550000000000000E-002     1.15831560932153     
  1.560000000000000E-002     1.17848625514791     
  1.570000000000000E-002     1.19815695815289     
  1.580000000000000E-002     1.21731280711298     
  1.590000000000000E-002     1.23593901080681     
  1.600000000000000E-002     1.25402147436779     
  1.610000000000000E-002     1.27154618865025     
  1.620000000000000E-002     1.28849980571739     
  1.630000000000000E-002     1.30486934792167     
  1.640000000000000E-002     1.32064218947216     
  1.650000000000000E-002     1.33580621492913     
  1.660000000000000E-002     1.35034981444052     
  1.670000000000000E-002     1.36426177564761     
  1.680000000000000E-002     1.37753146766463     
  1.690000000000000E-002     1.39014872077176     
  1.700000000000000E-002     1.40210384136319     
  1.710000000000000E-002     1.41338765290689     
  1.720000000000000E-002     1.42399162066810     
  1.730000000000000E-002     1.43390761861221     
  1.740000000000000E-002     1.44312822918304     
  1.750000000000000E-002     1.45164659915241     
  1.760000000000000E-002     1.45945619556075     
  1.770000000000000E-002     1.46655144916197     
  1.780000000000000E-002     1.47292696210651     
  1.790000000000000E-002     1.47857825010779     
  1.800000000000000E-002     1.48350128489227     
  1.810000000000000E-002     1.48769272928169     
  1.820000000000000E-002     1.49114971252304     
  1.830000000000000E-002     1.49387010627472     
  1.840000000000000E-002     1.49585228116835     
  1.850000000000000E-002     1.49709527624608     
  1.860000000000000E-002     1.49759880803516     
  1.870000000000000E-002     1.49736314821802     