 -4.000000000000000E-002    0.000000000000000E+000
 -3.990000000000000E-002    0.000000000000000E+000
 -3.980000000000000E-002    0.000000000000000E+000
 -3.970000000000000E-002    0.000000000000000E+000
 -3.960000000000000E-002    0.000000000000000E+000
 -3.950000000000000E-002    0.000000000000000E+000
 -3.940000000000000E-002    0.000000000000000E+000
 -3.930000000000000E-002    0.000000000000000E+000
 -3.920000000000000E-002    0.000000000000000E+000
 -3.910000000000000E-002    0.000000000000000E+000
 -3.900000000000000E-002    0.000000000000000E+000
 -3.890000000000000E-002    0.000000000000000E+000
 -3.880000000000000E-002    0.000000000000000E+000
 -3.870000000000000E-002    0.000000000000000E+000
 -3.860000000000000E-002    0.000000000000000E+000
 -3.850000000000000E-002    0.000000000000000E+000
 -3.840000000000000E-002    0.000000000000000E+000
 -3.830000000000000E-002    0.000000000000000E+000
 -3.820000000000000E-002    0.000000000000000E+000
 -3.810000000000000E-002    0.000000000000000E+000
 -3.800000000000000E-002    0.000000000000000E+000
 -3.790000000000000E-002    0.000000000000000E+000
 -3.780000000000000E-002    0.000000000000000E+000
 -3.770000000000000E-002    0.000000000000000E+000
 -3.760000000000000E-002    0.000000000000000E+000
 -3.750000000000000E-002    0.000000000000000E+000
 -3.740000000000000E-002    0.000000000000000E+000
 -3.730000000000000E-002    0.000000000000000E+000
 -3.720000000000000E-002    0.000000000000000E+000
 -3.710000000000000E-002    0.000000000000000E+000
 -3.700000000000000E-002    0.000000000000000E+000
 -3.690000000000000E-002    0.000000000000000E+000
 -3.680000000000000E-002    0.000000000000000E+000
 -3.670000000000000E-002    0.000000000000000E+000
 -3.660000000000000E-002    0.000000000000000E+000
 -3.650000000000000E-002    0.000000000000000E+000
 -3.640000000000000E-002    0.000000000000000E+000
 -3.630000000000000E-002    0.000000000000000E+000
 -3.620000000000000E-002    0.000000000000000E+000
 -3.610000000000000E-002    0.000000000000000E+000
 -3.600000000000000E-002    0.000000000000000E+000
 -3.590000000000000E-002    0.000000000000000E+000
 -3.580000000000000E-002    0.000000000000000E+000
 -3.570000000000000E-002    0.000000000000000E+000
 -3.560000000000000E-002    0.000000000000000E+000
 -3.550000000000000E-002    0.000000000000000E+000
 -3.540000000000000E-002    0.000000000000000E+000
 -3.530000000000000E-002    0.000000000000000E+000
 -3.520000000000000E-002    0.000000000000000E+000
 -3.510000000000000E-002    0.000000000000000E+000
 -3.500000000000000E-002    0.000000000000000E+000
 -3.490000000000000E-002    0.000000000000000E+000
 -3.480000000000000E-002    0.000000000000000E+000
 -3.470000000000000E-002    0.000000000000000E+000
 -3.460000000000000E-002    0.000000000000000E+000
 -3.450000000000000E-002    0.000000000000000E+000
 -3.440000000000000E-002    0.000000000000000E+000
 -3.430000000000000E-002    0.000000000000000E+000
 -3.420000000000000E-002    0.000000000000000E+000
 -3.410000000000000E-002    0.000000000000000E+000
 -3.400000000000000E-002    0.000000000000000E+000
 -3.390000000000000E-002    0.000000000000000E+000
 -3.380000000000000E-002    0.000000000000000E+000
 -3.370000000000000E-002    0.000000000000000E+000
 -3.360000000000000E-002    0.000000000000000E+000
 -3.350000000000000E-002    0.000000000000000E+000
 -3.340000000000000E-002    0.000000000000000E+000
 -3.330000000000000E-002    0.000000000000000E+000
 -3.320000000000000E-002    0.000000000000000E+000
 -3.310000000000000E-002    0.000000000000000E+000
 -3.300000000000000E-002    0.000000000000000E+000
 -3.290000000000000E-002    0.000000000000000E+000
 -3.280000000000000E-002    0.000000000000000E+000
 -3.270000000000000E-002    0.000000000000000E+000
 -3.260000000000000E-002    0.000000000000000E+000
 -3.250000000000000E-002    0.000000000000000E+000
 -3.240000000000000E-002    0.000000000000000E+000
 -3.230000000000000E-002    0.000000000000000E+000
 -3.220000000000000E-002    0.000000000000000E+000
 -3.210000000000000E-002    0.000000000000000E+000
 -3.200000000000000E-002    0.000000000000000E+000
 -3.190000000000000E-002    0.000000000000000E+000
 -3.180000000000000E-002    0.000000000000000E+000
 -3.170000000000000E-002    0.000000000000000E+000
 -3.160000000000000E-002    0.000000000000000E+000
 -3.150000000000000E-002    0.000000000000000E+000
 -3.140000000000000E-002    0.000000000000000E+000
 -3.130000000000000E-002    0.000000000000000E+000
 -3.120000000000000E-002    0.000000000000000E+000
 -3.110000000000000E-002    0.000000000000000E+000
 -3.100000000000000E-002    0.000000000000000E+000
 -3.090000000000000E-002    0.000000000000000E+000
 -3.080000000000000E-002    0.000000000000000E+000
 -3.070000000000000E-002    0.000000000000000E+000
 -3.060000000000000E-002    0.000000000000000E+000
 -3.050000000000000E-002    0.000000000000000E+000
 -3.040000000000000E-002    0.000000000000000E+000
 -3.030000000000000E-002    0.000000000000000E+000
 -3.020000000000000E-002    0.000000000000000E+000
 -3.010000000000000E-002    0.000000000000000E+000
 -3.000000000000000E-002    0.000000000000000E+000
 -2.990000000000000E-002    0.000000000000000E+000
 -2.980000000000000E-002    0.000000000000000E+000
 -2.970000000000000E-002    0.000000000000000E+000
 -2.960000000000000E-002    0.000000000000000E+000
 -2.950000000000000E-002    0.000000000000000E+000
 -2.940000000000000E-002    0.000000000000000E+000
 -2.930000000000000E-002    0.000000000000000E+000
 -2.920000000000000E-002    0.000000000000000E+000
 -2.910000000000000E-002    0.000000000000000E+000
 -2.900000000000000E-002    0.000000000000000E+000
 -2.890000000000000E-002    0.000000000000000E+000
 -2.880000000000000E-002    0.000000000000000E+000
 -2.870000000000000E-002    0.000000000000000E+000
 -2.860000000000000E-002    0.000000000000000E+000
 -2.850000000000000E-002    0.000000000000000E+000
 -2.840000000000000E-002    0.000000000000000E+000
 -2.830000000000000E-002    0.000000000000000E+000
 -2.820000000000000E-002    0.000000000000000E+000
 -2.810000000000000E-002    0.000000000000000E+000
 -2.800000000000000E-002    0.000000000000000E+000
 -2.790000000000000E-002    0.000000000000000E+000
 -2.780000000000000E-002    0.000000000000000E+000
 -2.770000000000000E-002    0.000000000000000E+000
 -2.760000000000000E-002    0.000000000000000E+000
 -2.750000000000000E-002    0.000000000000000E+000
 -2.740000000000000E-002    0.000000000000000E+000
 -2.730000000000000E-002    0.000000000000000E+000
 -2.720000000000000E-002    0.000000000000000E+000
 -2.710000000000000E-002    0.000000000000000E+000
 -2.700000000000000E-002    0.000000000000000E+000
 -2.690000000000000E-002    0.000000000000000E+000
 -2.680000000000000E-002    0.000000000000000E+000
 -2.670000000000000E-002    0.000000000000000E+000
 -2.660000000000000E-002    0.000000000000000E+000
 -2.650000000000000E-002    0.000000000000000E+000
 -2.640000000000000E-002    0.000000000000000E+000
 -2.630000000000000E-002    0.000000000000000E+000
 -2.620000000000000E-002    0.000000000000000E+000
 -2.610000000000000E-002    0.000000000000000E+000
 -2.600000000000000E-002    0.000000000000000E+000
 -2.590000000000000E-002    0.000000000000000E+000
 -2.580000000000000E-002    0.000000000000000E+000
 -2.570000000000000E-002    0.000000000000000E+000
 -2.560000000000000E-002    0.000000000000000E+000
 -2.550000000000000E-002    0.000000000000000E+000
 -2.540000000000000E-002    0.000000000000000E+000
 -2.530000000000000E-002    0.000000000000000E+000
 -2.520000000000000E-002    0.000000000000000E+000
 -2.510000000000000E-002    0.000000000000000E+000
 -2.500000000000000E-002    0.000000000000000E+000
 -2.490000000000000E-002    0.000000000000000E+000
 -2.480000000000000E-002    0.000000000000000E+000
 -2.470000000000000E-002    0.000000000000000E+000
 -2.460000000000000E-002    0.000000000000000E+000
 -2.450000000000000E-002    0.000000000000000E+000
 -2.440000000000000E-002    0.000000000000000E+000
 -2.430000000000000E-002    0.000000000000000E+000
 -2.420000000000000E-002    0.000000000000000E+000
 -2.410000000000000E-002    0.000000000000000E+000
 -2.400000000000000E-002    0.000000000000000E+000
 -2.390000000000000E-002    0.000000000000000E+000
 -2.380000000000000E-002    0.000000000000000E+000
 -2.370000000000000E-002    0.000000000000000E+000
 -2.360000000000000E-002    0.000000000000000E+000
 -2.350000000000000E-002    0.000000000000000E+000
 -2.340000000000000E-002    0.000000000000000E+000
 -2.330000000000000E-002    0.000000000000000E+000
 -2.320000000000000E-002    0.000000000000000E+000
 -2.310000000000000E-002    0.000000000000000E+000
 -2.300000000000000E-002    0.000000000000000E+000
 -2.290000000000000E-002    0.000000000000000E+000
 -2.280000000000000E-002    0.000000000000000E+000
 -2.270000000000000E-002    0.000000000000000E+000
 -2.260000000000000E-002    0.000000000000000E+000
 -2.250000000000000E-002    0.000000000000000E+000
 -2.240000000000000E-002    0.000000000000000E+000
 -2.230000000000000E-002    0.000000000000000E+000
 -2.220000000000000E-002    0.000000000000000E+000
 -2.210000000000000E-002    0.000000000000000E+000
 -2.200000000000000E-002    0.000000000000000E+000
 -2.190000000000000E-002    0.000000000000000E+000
 -2.180000000000000E-002    0.000000000000000E+000
 -2.170000000000000E-002    0.000000000000000E+000
 -2.160000000000000E-002    0.000000000000000E+000
 -2.150000000000000E-002    0.000000000000000E+000
 -2.140000000000000E-002    0.000000000000000E+000
 -2.130000000000000E-002    0.000000000000000E+000
 -2.120000000000000E-002    0.000000000000000E+000
 -2.110000000000000E-002    0.000000000000000E+000
 -2.100000000000000E-002    0.000000000000000E+000
 -2.090000000000000E-002    0.000000000000000E+000
 -2.080000000000000E-002    0.000000000000000E+000
 -2.070000000000000E-002    0.000000000000000E+000
 -2.060000000000000E-002    0.000000000000000E+000
 -2.050000000000000E-002    0.000000000000000E+000
 -2.040000000000000E-002    0.000000000000000E+000
 -2.030000000000000E-002    0.000000000000000E+000
 -2.020000000000000E-002    0.000000000000000E+000
 -2.010000000000000E-002    0.000000000000000E+000
 -2.000000000000000E-002    0.000000000000000E+000
 -1.990000000000000E-002    0.000000000000000E+000
 -1.980000000000000E-002    0.000000000000000E+000
 -1.970000000000000E-002    0.000000000000000E+000
 -1.960000000000000E-002    0.000000000000000E+000
 -1.950000000000000E-002    0.000000000000000E+000
 -1.940000000000000E-002    0.000000000000000E+000
 -1.930000000000000E-002    0.000000000000000E+000
 -1.920000000000000E-002    0.000000000000000E+000
 -1.910000000000000E-002    0.000000000000000E+000
 -1.900000000000000E-002    0.000000000000000E+000
 -1.890000000000000E-002    0.000000000000000E+000
 -1.880000000000000E-002    0.000000000000000E+000
 -1.870000000000000E-002    0.000000000000000E+000
 -1.860000000000000E-002    0.000000000000000E+000
 -1.850000000000000E-002    0.000000000000000E+000
 -1.840000000000000E-002    0.000000000000000E+000
 -1.830000000000000E-002    0.000000000000000E+000
 -1.820000000000000E-002    0.000000000000000E+000
 -1.810000000000000E-002    0.000000000000000E+000
 -1.800000000000000E-002    0.000000000000000E+000
 -1.790000000000000E-002    0.000000000000000E+000
 -1.780000000000000E-002    0.000000000000000E+000
 -1.770000000000000E-002    0.000000000000000E+000
 -1.760000000000000E-002    0.000000000000000E+000
 -1.750000000000000E-002    0.000000000000000E+000
 -1.740000000000000E-002    0.000000000000000E+000
 -1.730000000000000E-002    0.000000000000000E+000
 -1.720000000000000E-002    0.000000000000000E+000
 -1.710000000000000E-002    0.000000000000000E+000
 -1.700000000000000E-002    0.000000000000000E+000
 -1.690000000000000E-002    0.000000000000000E+000
 -1.680000000000000E-002    0.000000000000000E+000
 -1.670000000000000E-002    0.000000000000000E+000
 -1.660000000000000E-002    0.000000000000000E+000
 -1.650000000000000E-002    0.000000000000000E+000
 -1.640000000000000E-002    0.000000000000000E+000
 -1.630000000000000E-002    0.000000000000000E+000
 -1.620000000000000E-002    0.000000000000000E+000
 -1.610000000000000E-002    0.000000000000000E+000
 -1.600000000000000E-002    0.000000000000000E+000
 -1.590000000000000E-002    0.000000000000000E+000
 -1.580000000000000E-002    0.000000000000000E+000
 -1.570000000000000E-002    0.000000000000000E+000
 -1.560000000000000E-002    0.000000000000000E+000
 -1.550000000000000E-002    0.000000000000000E+000
 -1.540000000000000E-002    0.000000000000000E+000
 -1.530000000000000E-002    0.000000000000000E+000
 -1.520000000000000E-002    0.000000000000000E+000
 -1.510000000000000E-002    0.000000000000000E+000
 -1.500000000000000E-002    0.000000000000000E+000
 -1.490000000000000E-002    0.000000000000000E+000
 -1.480000000000000E-002    0.000000000000000E+000
 -1.470000000000000E-002    2.779800805334943E-048
 -1.460000000000000E-002    5.559601610669887E-048
 -1.450000000000000E-002    1.111920322133977E-047
 -1.440000000000000E-002    1.389900402667472E-047
 -1.430000000000000E-002    2.483288732939820E-047
 -1.420000000000000E-002    2.176666012786063E-047
 -1.410000000000000E-002    4.986748818264633E-048
 -1.400000000000000E-002   -2.013256490733619E-047
 -1.390000000000000E-002   -7.869524234962521E-047
 -1.380000000000000E-002   -1.453108958117164E-046
 -1.370000000000000E-002   -2.059105537732363E-046
 -1.360000000000000E-002   -2.634439845332186E-046
 -1.350000000000000E-002   -2.951548556508581E-046
 -1.340000000000000E-002   -2.710828501315435E-046
 -1.330000000000000E-002   -1.031570031241365E-046
 -1.320000000000000E-002    1.129921709613026E-046
 -1.310000000000000E-002    4.701294110481748E-046
 -1.300000000000000E-002    9.043688023614601E-046
 -1.290000000000000E-002    1.398716280657007E-045
 -1.280000000000000E-002    1.888459403354658E-045
 -1.270000000000000E-002    2.385403295929176E-045
 -1.260000000000000E-002    2.813825290077633E-045
 -1.250000000000000E-002    2.762499054848836E-045
 -1.240000000000000E-002    1.792891734761164E-045
 -1.230000000000000E-002    1.831737121376534E-046
 -1.220000000000000E-002   -2.657433736708890E-045
 -1.210000000000000E-002   -6.245748335018939E-045
 -1.200000000000000E-002   -1.106318982377852E-044
 -1.190000000000000E-002   -1.508366764351493E-044
 -1.180000000000000E-002   -1.879456303944604E-044
 -1.170000000000000E-002   -2.114346061625279E-044
 -1.160000000000000E-002   -2.046618835680211E-044
 -1.150000000000000E-002   -1.557210910571575E-044
 -1.140000000000000E-002   -4.513686327736623E-045
 -1.130000000000000E-002    1.204126647704235E-044
 -1.120000000000000E-002    3.542877722142146E-044
 -1.110000000000000E-002    6.399592561559752E-044
 -1.100000000000000E-002    9.544339983312352E-044
 -1.090000000000000E-002    1.226099826741213E-043
 -1.080000000000000E-002    1.400605432944994E-043
 -1.070000000000000E-002    1.405086547153194E-043
 -1.060000000000000E-002    1.132045350204541E-043
 -1.050000000000000E-002    5.087461834177495E-044
 -1.040000000000000E-002   -5.219692285082615E-044
 -1.030000000000000E-002   -1.955670566485939E-043
 -1.020000000000000E-002   -3.714893938515352E-043
 -1.010000000000000E-002   -5.621223242473777E-043
 -1.000000000000000E-002   -7.363906355152928E-043
 -9.899999999999999E-003   -8.544500436029050E-043
 -9.800000000000000E-003   -8.658705494642077E-043
 -9.699999999999999E-003   -7.183242649865613E-043
 -9.599999999999999E-003   -3.656525626662534E-043
 -9.500000000000000E-003    2.206892321964234E-043
 -9.399999999999999E-003    1.038651096864875E-042
 -9.299999999999999E-003    2.041359197173722E-042
 -9.200000000000000E-003    3.125751064580910E-042
 -9.099999999999999E-003    4.126591709113132E-042
 -8.999999999999999E-003    4.820891450701408E-042
 -8.900000000000000E-003    4.944937032875035E-042
 -8.799999999999999E-003    4.222997089505211E-042
 -8.699999999999999E-003    2.416008033906963E-042
 -8.600000000000000E-003   -6.196069678444033E-043
 -8.499999999999999E-003   -4.865050184569205E-042
 -8.399999999999999E-003   -1.007144503991223E-041
 -8.300000000000000E-003   -1.571154106278662E-041
 -8.199999999999999E-003   -2.096082809132828E-041
 -8.100000000000000E-003   -2.472150403739497E-041
 -8.000000000000000E-003   -2.571185397777803E-041
 -7.899999999999999E-003   -2.262034603608172E-041
 -7.800000000000000E-003   -1.433183754575005E-041
 -7.699999999999999E-003   -1.998833478659132E-043
 -7.599999999999999E-003    1.965444619195264E-041
 -7.499999999999999E-003    4.406270234743824E-041
 -7.399999999999999E-003    7.061597145017888E-041
 -7.299999999999999E-003    9.561495243508671E-041
 -7.199999999999999E-003    1.142247747515221E-040
 -7.100000000000000E-003    1.208883950452684E-040
 -6.999999999999999E-003    1.100201185666256E-040
 -6.899999999999999E-003    7.694017434069246E-041
 -6.800000000000000E-003    1.899965754997955E-041
 -6.699999999999999E-003   -6.326294786001437E-041
 -6.599999999999999E-003   -1.651035182970429E-040
 -6.499999999999999E-003   -2.769224142565096E-040
 -6.399999999999999E-003   -3.842123641220492E-040
 -6.299999999999999E-003   -4.683078655605075E-040
 -6.199999999999999E-003   -5.080738801634751E-040
 -6.100000000000000E-003   -4.825290091109948E-040
 -5.999999999999999E-003   -3.742561764414827E-040
 -5.899999999999999E-003   -1.732828236999708E-040
 -5.800000000000000E-003    1.190962875238188E-040
 -5.699999999999999E-003    4.871834646893719E-040
 -5.599999999999999E-003    8.991421004315690E-040
 -5.499999999999999E-003    1.307326388044546E-039
 -5.399999999999999E-003    1.651173277734653E-039
 -5.299999999999999E-003    1.862845602684763E-039
 -5.199999999999999E-003    1.875413300310001E-039
 -5.099999999999999E-003    1.632867574745107E-039
 -4.999999999999999E-003    1.100813428801348E-039
 -4.899999999999999E-003    2.762829939721319E-040
 -4.799999999999999E-003   -8.050307790779835E-040
 -4.699999999999999E-003   -2.065772060817952E-039
 -4.599999999999999E-003   -3.389360852546426E-039
 -4.499999999999999E-003   -4.628393514637779E-039
 -4.399999999999999E-003   -5.618541832420495E-039
 -4.299999999999999E-003   -6.196452039789469E-039
 -4.199999999999999E-003   -6.219168311062442E-039
 -4.099999999999999E-003   -5.582012320241883E-039
 -3.999999999999999E-003   -4.231745935205367E-039
 -3.899999999999999E-003   -2.172519462957610E-039
 -3.799999999999999E-003    5.365199655949804E-040
 -3.699999999999999E-003    3.791065168110236E-039
 -3.599999999999999E-003    7.455742359131435E-039
 -3.499999999999999E-003    1.137713190953939E-038
 -3.399999999999999E-003    1.538911846373877E-038
 -3.299999999999999E-003    1.930410377151257E-038
 -3.199999999999999E-003    2.288577740620674E-038
 -3.099999999999999E-003    2.580349423150342E-038
 -2.999999999999999E-003    2.757463690962167E-038
 -2.899999999999999E-003    2.750895090481365E-038
 -2.799999999999999E-003    2.467628441997605E-038
 -2.699999999999999E-003    1.792458928262132E-038
 -2.599999999999999E-003    5.976351948177750E-039
 -2.499999999999999E-003   -1.237331211523445E-038
 -2.399999999999999E-003   -3.794637865848662E-038
 -2.299999999999999E-003   -7.076964860996702E-038
 -2.199999999999999E-003   -1.095985893375455E-037
 -2.099999999999999E-003   -1.514470975912711E-037
 -1.999999999999999E-003   -1.912236418653929E-037
 -1.899999999999999E-003   -2.215975967425323E-037
 -1.799999999999999E-003   -2.332272139940831E-037
 -1.699999999999999E-003   -2.154667264547211E-037
 -1.599999999999999E-003   -1.576276361850463E-037
 -1.499999999999999E-003   -5.079732723847490E-038
 -1.399999999999999E-003    1.098809756621480E-037
 -1.299999999999999E-003    3.226813978618127E-037
 -1.199999999999999E-003    5.768580434991131E-037
 -1.099999999999999E-003    8.507406800878447E-037
 -9.999999999999989E-004    1.110874786725154E-036
 -8.999999999999990E-004    1.312723038839138E-036
 -7.999999999999990E-004    1.403369676016531E-036
 -6.999999999999989E-004    1.326497219159235E-036
 -5.999999999999990E-004    1.029641246715165E-036
 -4.999999999999989E-004    4.733816521024290E-037
 -3.999999999999989E-004   -3.582656941786240E-037
 -2.999999999999989E-004   -1.447393073749105E-036
 -1.999999999999989E-004   -2.733165120658914E-036
 -9.999999999999892E-005   -4.105918032116322E-036
  1.084202172485504E-018   -5.406169863800948E-036
  1.000000000000011E-004   -6.430149560078172E-036
  2.000000000000011E-004   -6.943036471102704E-036
  3.000000000000011E-004   -6.700427859663034E-036
  4.000000000000011E-004   -5.477654411328422E-036
  5.000000000000011E-004   -3.105486317256823E-036
  6.000000000000011E-004    4.903789888063845E-037
  7.000000000000011E-004    5.249793247942197E-036
  8.000000000000011E-004    1.094335260270393E-035
  9.000000000000012E-004    1.714779527401108E-035
  1.000000000000001E-003    2.323745957204656E-035
  1.100000000000001E-003    2.839751853530829E-035
  1.200000000000001E-003    3.166399295691049E-035
  1.300000000000001E-003    3.199412248712660E-035
  1.400000000000001E-003    2.836848531165033E-035
  1.500000000000001E-003    1.992324740730809E-035
  1.600000000000001E-003    6.107098578138822E-036
  1.700000000000001E-003   -1.314722934965670E-035
  1.800000000000001E-003   -3.725216061745103E-035
  1.900000000000001E-003   -6.481590485584003E-035
  2.000000000000001E-003   -9.354034981274365E-035
  2.100000000000001E-003   -1.201959288637101E-034
  2.200000000000001E-003   -1.407048035346766E-034
  2.300000000000001E-003   -1.503616971026185E-034
  2.400000000000001E-003   -1.442149717454606E-034
  2.500000000000001E-003   -1.176176170495198E-034
  2.600000000000001E-003   -6.693810745991871E-035
  2.700000000000001E-003    9.604984417418684E-036
  2.800000000000001E-003    1.110524445672855E-034
  2.900000000000001E-003    2.328599432184950E-034
  3.000000000000001E-003    3.662339950931167E-034
  3.100000000000001E-003    4.978077818110783E-034
  3.200000000000001E-003    6.098266330219788E-034
  3.300000000000001E-003    6.810019464056774E-034
  3.400000000000001E-003    6.881530411169226E-034
  3.500000000000001E-003    6.086847174201938E-034
  3.600000000000001E-003    4.238439016363154E-034
  3.700000000000001E-003    1.225653238981333E-034
  3.800000000000001E-003   -2.944343684481187E-034
  3.900000000000001E-003   -8.108084997121496E-034
  4.000000000000001E-003   -1.391601180385721E-033
  4.100000000000001E-003   -1.981843794381076E-033
  4.200000000000001E-003   -2.507438602777180E-033
  4.300000000000001E-003   -2.878943155641494E-033
  4.400000000000001E-003   -2.998655688582587E-033
  4.500000000000001E-003   -2.771057801024276E-033
  4.600000000000002E-003   -2.116222525491619E-033
  4.700000000000001E-003   -9.852594779051768E-034
  4.800000000000001E-003    6.236885137235259E-034
  4.900000000000002E-003    2.650896573872279E-033
  5.000000000000001E-003    4.964341180534434E-033
  5.100000000000001E-003    7.355361410249697E-033
  5.200000000000001E-003    9.543112329690802E-033
  5.300000000000002E-003    1.118971582776369E-032
  5.400000000000001E-003    1.192712854169389E-032
  5.500000000000001E-003    1.139548543086808E-032
  5.600000000000002E-003    9.291116342100173E-033
  5.700000000000001E-003    5.420711456327892E-033
  5.800000000000001E-003   -2.435933093936712E-034
  5.900000000000002E-003   -7.514913271805219E-033
  6.000000000000001E-003   -1.595576801708473E-032
  6.100000000000001E-003   -2.486363222673934E-032
  6.200000000000002E-003   -3.328519447234146E-032
  6.300000000000002E-003   -4.006491914249378E-032
  6.400000000000001E-003   -4.393073934082477E-032
  6.500000000000001E-003   -4.361601156222669E-032
  6.600000000000002E-003   -3.801228637469245E-032
  6.700000000000001E-003   -2.634258131530496E-032
  6.800000000000001E-003   -8.339988646646493E-033
  6.900000000000002E-003    1.558781373579178E-032
  7.000000000000001E-003    4.423062063455560E-032
  7.100000000000001E-003    7.550796007565073E-032
  7.200000000000002E-003    1.064842245587308E-031
  7.300000000000002E-003    1.334853795902020E-031
  7.400000000000001E-003    1.523293697754032E-031
  7.500000000000001E-003    1.586726040423716E-031
  7.600000000000002E-003    1.484629204816383E-031
  7.700000000000001E-003    1.184751693512461E-031
  7.800000000000001E-003    6.689082616921883E-032
  7.900000000000001E-003   -6.131484466554268E-033
  8.000000000000002E-003   -9.796022723728533E-032
  8.100000000000001E-003   -2.031440802466267E-031
  8.200000000000001E-003   -3.132908537107488E-031
  8.300000000000002E-003   -4.172442576633368E-031
  8.400000000000001E-003   -5.016165137283050E-031
  8.500000000000002E-003   -5.517107571807374E-031
  8.600000000000002E-003   -5.528325377283048E-031
  8.700000000000001E-003   -4.919457998523642E-031
  8.800000000000002E-003   -3.595781220605370E-031
  8.900000000000002E-003   -1.518261556911874E-031
  9.000000000000001E-003    1.277398654268023E-031
  9.100000000000002E-003    4.665161493812103E-031
  9.200000000000002E-003    8.419198078373257E-031
  9.300000000000001E-003    1.221328961444682E-030
  9.400000000000002E-003    1.563151577307035E-030
  9.500000000000001E-003    1.819197342157338E-030
  9.600000000000001E-003    1.938425049589663E-030
  9.700000000000002E-003    1.871992387496764E-030
  9.800000000000001E-003    1.579367882343526E-030
  9.900000000000001E-003    1.035072616377858E-030
  1.000000000000000E-002    2.354370175015168E-031
  1.010000000000000E-002   -7.954060957548211E-031
  1.020000000000000E-002   -2.001178062884887E-030
  1.030000000000000E-002   -3.291681580447162E-030
  1.040000000000000E-002   -4.544451564399552E-030
  1.050000000000000E-002   -5.610492869793636E-030
  1.060000000000000E-002   -6.324462017886348E-030
  1.070000000000000E-002   -6.519220204292934E-030
  1.080000000000000E-002   -6.044161659226173E-030
  1.090000000000000E-002   -4.786143103889329E-030
  1.100000000000000E-002   -2.691261378010959E-030
  1.110000000000000E-002    2.147849643135308E-031
  1.120000000000000E-002    3.810379776999784E-030
  1.130000000000000E-002    7.868515545851897E-030
  1.140000000000000E-002    1.205680809305712E-029
  1.150000000000000E-002    1.594921235233648E-029
  1.160000000000000E-002    1.905081746133055E-029
  1.170000000000000E-002    2.083598643784785E-029
  1.180000000000000E-002    2.079866631561476E-029
  1.190000000000000E-002    1.851209358138310E-029
  1.200000000000000E-002    1.369349174282645E-029
  1.210000000000000E-002    6.267838134950616E-030
  1.220000000000000E-002   -3.576450499921214E-030
  1.230000000000000E-002   -1.534769711353136E-029
  1.240000000000000E-002   -2.823484491360741E-029
  1.250000000000000E-002   -4.112198031704140E-029
  1.260000000000000E-002   -5.263872128230810E-029
  1.270000000000000E-002   -6.124897102417268E-029
  1.280000000000000E-002   -6.537702807760584E-029
  1.290000000000000E-002   -6.356585800038225E-029
  1.300000000000000E-002   -5.465781971219472E-029
  1.310000000000000E-002   -3.798363666813043E-029
  1.320000000000000E-002   -1.354150613627738E-029
  1.330000000000000E-002    1.785467192086791E-029
  1.340000000000000E-002    5.448037397415527E-029
  1.350000000000000E-002    9.368031245184160E-029
  1.360000000000000E-002    1.319417017018783E-028
  1.370000000000000E-002    1.650733840477100E-028
  1.380000000000000E-002    1.884952216941511E-028
  1.390000000000000E-002    1.976313411762380E-028
  1.400000000000000E-002    1.883884238466738E-028
  1.410000000000000E-002    1.576873873553619E-028
  1.420000000000000E-002    1.040040752792491E-028
  1.430000000000000E-002    2.786421103156186E-029
  1.440000000000000E-002   -6.776924875279688E-029
  1.450000000000000E-002   -1.772801428392411E-028
  1.460000000000000E-002   -2.924139412011569E-028
  1.470000000000000E-002   -4.025708587194105E-028
  1.480000000000000E-002   -4.954055329960683E-028
  1.490000000000000E-002   -5.577350554595555E-028
  1.500000000000000E-002   -5.767248380468809E-028
  1.510000000000000E-002   -5.412858941462566E-028
  1.520000000000000E-002   -4.435809718897282E-028
  1.530000000000000E-002   -2.805046570459158E-028
  1.540000000000000E-002   -5.497686189239330E-029
  1.550000000000000E-002    2.231226065352422E-028
  1.560000000000000E-002    5.365487116052466E-028
  1.570000000000000E-002    8.609629592884219E-028
  1.580000000000000E-002    1.165988689499105E-027
  1.590000000000000E-002    1.417095202260103E-027
  1.600000000000000E-002    1.578277344250165E-027
  1.610000000000000E-002    1.615409364807954E-027
  1.620000000000000E-002    1.500058480406157E-027
  1.630000000000000E-002    1.213453472062801E-027
  1.640000000000000E-002    7.502340654012970E-028
  1.650000000000000E-002    1.215577719443040E-028
  1.660000000000000E-002   -6.428699829249129E-028
  1.670000000000000E-002   -1.494245304678435E-027
  1.680000000000000E-002   -2.365920896045505E-027
  1.690000000000000E-002   -3.176666633840796E-027
  1.700000000000000E-002   -3.835970037722109E-027
  1.710000000000000E-002   -4.251212783655595E-027
  1.720000000000000E-002   -4.336342505172748E-027
  1.730000000000000E-002   -4.021447184381400E-027
  1.740000000000000E-002   -3.262447288257382E-027
  1.750000000000000E-002   -2.049980152001284E-027
  1.760000000000000E-002   -4.164710747979103E-028
  1.770000000000000E-002    1.559603302887757E-027
  1.780000000000000E-002    3.753140661976414E-027
  1.790000000000000E-002    5.996203949156666E-027
  1.800000000000000E-002    8.086541704942911E-027
  1.810000000000000E-002    9.800802052748523E-027
  1.820000000000000E-002    1.091195867237479E-026
  1.830000000000000E-002    1.120998897674535E-026
  1.840000000000000E-002    1.052437472848569E-026
  1.850000000000000E-002    8.746614298323131E-027
  1.860000000000000E-002    5.850639457541970E-027
  1.870000000000000E-002    1.908896866265525E-027