 -4.000000000000000E-002    0.000000000000000E+000
 -3.990000000000000E-002    0.000000000000000E+000
 -3.980000000000000E-002    0.000000000000000E+000
 -3.970000000000000E-002    0.000000000000000E+000
 -3.960000000000000E-002    0.000000000000000E+000
 -3.950000000000000E-002    0.000000000000000E+000
 -3.940000000000000E-002    0.000000000000000E+000
 -3.930000000000000E-002    0.000000000000000E+000
 -3.920000000000000E-002    0.000000000000000E+000
 -3.910000000000000E-002    0.000000000000000E+000
 -3.900000000000000E-002    0.000000000000000E+000
 -3.890000000000000E-002    0.000000000000000E+000
 -3.880000000000000E-002    0.000000000000000E+000
 -3.870000000000000E-002    0.000000000000000E+000
 -3.860000000000000E-002    0.000000000000000E+000
 -3.850000000000000E-002    0.000000000000000E+000
 -3.840000000000000E-002    0.000000000000000E+000
 -3.830000000000000E-002    0.000000000000000E+000
 -3.820000000000000E-002    0.000000000000000E+000
 -3.810000000000000E-002    0.000000000000000E+000
 -3.800000000000000E-002    0.000000000000000E+000
 -3.790000000000000E-002    0.000000000000000E+000
 -3.780000000000000E-002    0.000000000000000E+000
 -3.770000000000000E-002    0.000000000000000E+000
 -3.760000000000000E-002    0.000000000000000E+000
 -3.750000000000000E-002    0.000000000000000E+000
 -3.740000000000000E-002    0.000000000000000E+000
 -3.730000000000000E-002    0.000000000000000E+000
 -3.720000000000000E-002    0.000000000000000E+000
 -3.710000000000000E-002    0.000000000000000E+000
 -3.700000000000000E-002    0.000000000000000E+000
 -3.690000000000000E-002    0.000000000000000E+000
 -3.680000000000000E-002    0.000000000000000E+000
 -3.670000000000000E-002    0.000000000000000E+000
 -3.660000000000000E-002    0.000000000000000E+000
 -3.650000000000000E-002    0.000000000000000E+000
 -3.640000000000000E-002    0.000000000000000E+000
 -3.630000000000000E-002    0.000000000000000E+000
 -3.620000000000000E-002    0.000000000000000E+000
 -3.610000000000000E-002    0.000000000000000E+000
 -3.600000000000000E-002    0.000000000000000E+000
 -3.590000000000000E-002    0.000000000000000E+000
 -3.580000000000000E-002    0.000000000000000E+000
 -3.570000000000000E-002    0.000000000000000E+000
 -3.560000000000000E-002    0.000000000000000E+000
 -3.550000000000000E-002    0.000000000000000E+000
 -3.540000000000000E-002    0.000000000000000E+000
 -3.530000000000000E-002    0.000000000000000E+000
 -3.520000000000000E-002    0.000000000000000E+000
 -3.510000000000000E-002    0.000000000000000E+000
 -3.500000000000000E-002    0.000000000000000E+000
 -3.490000000000000E-002    0.000000000000000E+000
 -3.480000000000000E-002    0.000000000000000E+000
 -3.470000000000000E-002    0.000000000000000E+000
 -3.460000000000000E-002    0.000000000000000E+000
 -3.450000000000000E-002    0.000000000000000E+000
 -3.440000000000000E-002    0.000000000000000E+000
 -3.430000000000000E-002    0.000000000000000E+000
 -3.420000000000000E-002    0.000000000000000E+000
 -3.410000000000000E-002    0.000000000000000E+000
 -3.400000000000000E-002    0.000000000000000E+000
 -3.390000000000000E-002    0.000000000000000E+000
 -3.380000000000000E-002    1.334479722080923E-047
 -3.370000000000000E-002   -7.036784715695947E-047
 -3.360000000000000E-002   -1.034537023092587E-046
 -3.350000000000000E-002   -1.231947602407487E-046
 -3.340000000000000E-002   -5.969193311561200E-047
 -3.330000000000000E-002    7.739990014539364E-047
 -3.320000000000000E-002    4.952006337653475E-046
 -3.310000000000000E-002    1.270648693105480E-045
 -3.300000000000000E-002    2.446750643627527E-045
 -3.290000000000000E-002    4.478505694477797E-045
 -3.280000000000000E-002    7.377216101384485E-045
 -3.270000000000000E-002    1.261446376375076E-044
 -3.260000000000000E-002    2.097122816329802E-044
 -3.250000000000000E-002    3.271172697390383E-044
 -3.240000000000000E-002    4.798216258549397E-044
 -3.230000000000000E-002    6.412416531085010E-044
 -3.220000000000000E-002    7.517837862100874E-044
 -3.210000000000000E-002    6.967064893893580E-044
 -3.200000000000000E-002    2.747154767315141E-044
 -3.190000000000000E-002   -8.784179896373677E-044
 -3.180000000000000E-002   -3.288449304226912E-043
 -3.170000000000000E-002   -7.669286785257274E-043
 -3.160000000000000E-002   -1.493912791046483E-042
 -3.150000000000000E-002   -2.609781009878985E-042
 -3.140000000000000E-002   -4.197091267149334E-042
 -3.130000000000000E-002   -6.267689079463150E-042
 -3.120000000000000E-002   -8.684526992181323E-042
 -3.110000000000000E-002   -1.103030805229500E-041
 -3.100000000000000E-002   -1.243293751268920E-041
 -3.090000000000000E-002   -1.133912180455875E-041
 -3.080000000000000E-002   -5.270286069022116E-042
 -3.070000000000000E-002    9.396715688307286E-042
 -3.060000000000000E-002    3.752660212649012E-041
 -3.050000000000000E-002    8.504868642514029E-041
 -3.040000000000000E-002    1.582831807011859E-040
 -3.030000000000000E-002    2.624931359189199E-040
 -3.020000000000000E-002    3.993202642050593E-040
 -3.010000000000000E-002    5.627831637807929E-040
 -3.000000000000000E-002    7.335954344822801E-040
 -2.990000000000000E-002    8.718223834299829E-040
 -2.980000000000000E-002    9.083318583162342E-040
 -2.970000000000000E-002    7.362310167692351E-040
 -2.960000000000000E-002    2.045008206951627E-040
 -2.950000000000000E-002   -8.826426556405745E-040
 -2.940000000000000E-002   -2.755621137778596E-039
 -2.930000000000000E-002   -5.652083652309995E-039
 -2.920000000000000E-002   -9.764632544696547E-039
 -2.910000000000000E-002   -1.515603056410893E-038
 -2.900000000000000E-002   -2.163596996902307E-038
 -2.890000000000000E-002   -2.859786586988411E-038
 -2.880000000000000E-002   -3.482227554197471E-038
 -2.870000000000000E-002   -3.826619713707495E-038
 -2.860000000000000E-002   -3.587510754898855E-038
 -2.850000000000000E-002   -2.347675315235158E-038
 -2.840000000000000E-002    4.159288034492525E-039
 -2.830000000000000E-002    5.298777256774095E-038
 -2.820000000000000E-002    1.289532288042369E-037
 -2.810000000000000E-002    2.367242795626231E-037
 -2.800000000000000E-002    3.777875471972425E-037
 -2.790000000000000E-002    5.478495913826847E-037
 -2.780000000000000E-002    7.336014361256105E-037
 -2.770000000000000E-002    9.090659652950471E-037
 -2.760000000000000E-002    1.031974393287403E-036
 -2.750000000000000E-002    1.040905357060280E-036
 -2.740000000000000E-002    8.542397057209416E-037
 -2.730000000000000E-002    3.723048554562845E-037
 -2.720000000000000E-002   -5.156628267833991E-037
 -2.710000000000000E-002   -1.918000826837119E-036
 -2.700000000000000E-002   -3.918970833077093E-036
 -2.690000000000000E-002   -6.547930698779435E-036
 -2.680000000000000E-002   -9.739324398465363E-036
 -2.670000000000000E-002   -1.328514124122473E-035
 -2.660000000000000E-002   -1.678380847838407E-035
 -2.650000000000000E-002   -1.959242195309893E-035
 -2.640000000000000E-002   -2.079262509506833E-035
 -2.630000000000000E-002   -1.918401240294699E-035
 -2.620000000000000E-002   -1.332203185952144E-035
 -2.610000000000000E-002   -1.619377869960991E-036
 -2.600000000000000E-002    1.747027606439435E-035
 -2.590000000000000E-002    4.517080481752844E-035
 -2.580000000000000E-002    8.199682730755284E-035
 -2.570000000000000E-002    1.272674384343382E-034
 -2.560000000000000E-002    1.785459695386558E-034
 -2.550000000000000E-002    2.310574159606708E-034
 -2.540000000000000E-002    2.771664504717846E-034
 -2.530000000000000E-002    3.060338283090179E-034
 -2.520000000000000E-002    3.036021002880467E-034
 -2.510000000000000E-002    2.530883231699887E-034
 -2.500000000000000E-002    1.361717343339352E-034
 -2.490000000000000E-002   -6.494918347259153E-035
 -2.480000000000000E-002   -3.645074384750223E-034
 -2.470000000000000E-002   -7.691001937999185E-034
 -2.460000000000000E-002   -1.272729585248350E-033
 -2.450000000000000E-002   -1.851289232445990E-033
 -2.440000000000000E-002   -2.457092286037898E-033
 -2.430000000000000E-002   -3.014336314396252E-033
 -2.420000000000000E-002   -3.416692827979309E-033
 -2.410000000000000E-002   -3.528457317233667E-033
 -2.400000000000000E-002   -3.190823160875960E-033
 -2.390000000000000E-002   -2.234778785472130E-033
 -2.380000000000000E-002   -5.017630251068089E-034
 -2.370000000000000E-002    2.127493857728320E-033
 -2.360000000000000E-002    5.696657806476712E-033
 -2.350000000000000E-002    1.013228990932731E-032
 -2.340000000000000E-002    1.520134212214569E-032
 -2.330000000000000E-002    2.047396177062398E-032
 -2.320000000000000E-002    2.529992624260202E-032
 -2.310000000000000E-002    2.880856280945922E-032
 -2.300000000000000E-002    2.994260881234182E-032
 -2.290000000000000E-002    2.753544709226370E-032
 -2.280000000000000E-002    2.043821256244873E-032
 -2.270000000000000E-002    7.697783145588915E-033
 -2.260000000000000E-002   -1.122126915922571E-032
 -2.250000000000000E-002   -3.618798701666589E-032
 -2.240000000000000E-002   -6.615845603198051E-032
 -2.230000000000000E-002   -9.897182679083727E-032
 -2.220000000000000E-002   -1.312390148838586E-031
 -2.210000000000000E-002   -1.583789871902000E-031
 -2.200000000000000E-002   -1.748547652880255E-031
 -2.190000000000000E-002   -1.746486398887622E-031
 -2.180000000000000E-002   -1.519911638358811E-031
 -2.170000000000000E-002   -1.023212742568712E-031
 -2.160000000000000E-002   -2.340706062161922E-032
 -2.150000000000000E-002    8.349783073061254E-032
 -2.140000000000000E-002    2.126403299839020E-031
 -2.130000000000000E-002    3.531178117710176E-031
 -2.120000000000000E-002    4.888325234332160E-031
 -2.110000000000000E-002    5.992765073244901E-031
 -2.100000000000000E-002    6.613131221479209E-031
 -2.090000000000000E-002    6.520080819852735E-031
 -2.080000000000000E-002    5.524020606626377E-031
 -2.070000000000000E-002    3.519131564315839E-031
 -2.060000000000000E-002    5.283737848174486E-032
 -2.050000000000000E-002   -3.257891778081830E-031
 -2.040000000000000E-002   -7.458501569952654E-031
 -2.030000000000000E-002   -1.150257822381782E-030
 -2.020000000000000E-002   -1.466332991990282E-030
 -2.010000000000000E-002   -1.612991172846264E-030
 -2.000000000000000E-002   -1.511792150855130E-030
 -1.990000000000000E-002   -1.101264710377162E-030
 -1.980000000000000E-002   -3.531641875815480E-031
 -1.970000000000000E-002    7.114570786723733E-031
 -1.960000000000000E-002    2.009122896838248E-030
 -1.950000000000000E-002    3.386890928806164E-030
 -1.940000000000000E-002    4.624476053617825E-030
 -1.930000000000000E-002    5.448038572451546E-030
 -1.920000000000000E-002    5.556926941721889E-030
 -1.910000000000000E-002    4.662911951044854E-030
 -1.900000000000000E-002    2.539278714093405E-030
 -1.890000000000000E-002   -9.252205708057161E-031
 -1.880000000000000E-002   -5.674599547446257E-030
 -1.870000000000000E-002   -1.144464142607214E-029
 -1.860000000000000E-002   -1.774154746605034E-029
 -1.850000000000000E-002   -2.384818663599779E-029
 -1.840000000000000E-002   -2.886325515330765E-029
 -1.830000000000000E-002   -3.177455216644466E-029
 -1.820000000000000E-002   -3.156264653082599E-029
 -1.810000000000000E-002   -2.732548193829970E-029
 -1.800000000000000E-002   -1.840987954684254E-029
 -1.790000000000000E-002   -4.532620451274048E-030
 -1.780000000000000E-002    1.412670940656818E-029
 -1.770000000000000E-002    3.687624894726222E-029
 -1.760000000000000E-002    6.251454748591904E-029
 -1.750000000000000E-002    8.938541248043854E-029
 -1.740000000000000E-002    1.154747578426348E-028
 -1.730000000000000E-002    1.385299085006409E-028
 -1.720000000000000E-002    1.561756860361817E-028
 -1.710000000000000E-002    1.660020210168588E-028
 -1.700000000000000E-002    1.656045082886531E-028
 -1.690000000000000E-002    1.525763116786880E-028
 -1.680000000000000E-002    1.244712862116213E-028
 -1.670000000000000E-002    7.878350479588534E-029
 -1.660000000000000E-002    1.301176050163962E-029
 -1.650000000000000E-002   -7.511067117302832E-029
 -1.640000000000000E-002   -1.871461453024747E-028
 -1.630000000000000E-002   -3.231965791891071E-028
 -1.620000000000000E-002   -4.808706071463512E-028
 -1.610000000000000E-002   -6.540642108289473E-028
 -1.600000000000000E-002   -8.317371395507468E-028
 -1.590000000000000E-002   -9.969634113320261E-028
 -1.580000000000000E-002   -1.126599336030979E-027
 -1.570000000000000E-002   -1.191935302435246E-027
 -1.560000000000000E-002   -1.160643833884910E-027
 -1.550000000000000E-002   -1.000197415448167E-027
 -1.540000000000000E-002   -6.826970761496876E-028
 -1.530000000000000E-002   -1.907485143338342E-028
 -1.520000000000000E-002    4.763142667736976E-028
 -1.510000000000000E-002    1.296881727542599E-027
 -1.500000000000000E-002    2.223423362028986E-027
 -1.490000000000000E-002    3.182018156993896E-027
 -1.480000000000000E-002    4.076115100334119E-027
 -1.470000000000000E-002    4.795073966466451E-027
 -1.460000000000000E-002    5.227260587352130E-027
 -1.450000000000000E-002    5.276495160602362E-027
 -1.440000000000000E-002    4.879584292181839E-027
 -1.430000000000000E-002    4.021776585921863E-027
 -1.420000000000000E-002    2.746434330702356E-027
 -1.410000000000000E-002    1.155305227365263E-027
 -1.400000000000000E-002   -6.033397031770394E-028
 -1.390000000000000E-002   -2.359639652856305E-027
 -1.380000000000000E-002   -3.958536518405532E-027
 -1.370000000000000E-002   -5.302869415853638E-027
 -1.360000000000000E-002   -6.395314869568181E-027
 -1.350000000000000E-002   -7.368761808685268E-027
 -1.340000000000000E-002   -8.493593927811614E-027
 -1.330000000000000E-002   -1.015129122578448E-026
 -1.320000000000000E-002   -1.276733284776902E-026
 -1.310000000000000E-002   -1.670270604093021E-026
 -1.300000000000000E-002   -2.211207950035038E-026
 -1.290000000000000E-002   -2.878685371026788E-026
 -1.280000000000000E-002   -3.601133536660164E-026
 -1.270000000000000E-002   -4.246805138406074E-026
 -1.260000000000000E-002   -4.623140598020021E-026
 -1.250000000000000E-002   -4.488543633501406E-026
 -1.240000000000000E-002   -3.578965793711595E-026
 -1.230000000000000E-002   -1.649652340836087E-026
 -1.220000000000000E-002    1.470374153073989E-026
 -1.210000000000000E-002    5.816786243500982E-026
 -1.200000000000000E-002    1.123027892197070E-025
 -1.190000000000000E-002    1.731028133853703E-025
 -1.180000000000000E-002    2.339486743641750E-025
 -1.170000000000000E-002    2.857900901282347E-025
 -1.160000000000000E-002    3.178031807048604E-025
 -1.150000000000000E-002    3.185576360709492E-025
 -1.140000000000000E-002    2.776502525339926E-025
 -1.130000000000000E-002    1.876675660330339E-025
 -1.120000000000000E-002    4.624431646795330E-026
 -1.110000000000000E-002   -1.420977647418295E-025
 -1.100000000000000E-002   -3.646953780756790E-025
 -1.090000000000000E-002   -6.004384387743456E-025
 -1.080000000000000E-002   -8.207157335492580E-025
 -1.070000000000000E-002   -9.917828276447880E-025
 -1.060000000000000E-002   -1.078530688509941E-024
 -1.050000000000000E-002   -1.049395486334451E-024
 -1.040000000000000E-002   -8.818997459596264E-025
 -1.030000000000000E-002   -5.680903610987587E-025
 -1.020000000000000E-002   -1.189840945028031E-025
 -1.010000000000000E-002    4.329082075216555E-025
 -1.000000000000000E-002    1.033801727862467E-024
 -9.899999999999999E-003    1.612156595363008E-024
 -9.800000000000000E-003    2.085629891069648E-024
 -9.699999999999999E-003    2.371070200265501E-024
 -9.599999999999999E-003    2.396586078418803E-024
 -9.500000000000000E-003    2.114190427055874E-024
 -9.399999999999999E-003    1.511143709332001E-024
 -9.299999999999999E-003    6.179695426008417E-025
 -9.200000000000000E-003   -4.887118620391755E-025
 -9.099999999999999E-003   -1.689873284760523E-024
 -8.999999999999999E-003   -2.834812180996584E-024
 -8.900000000000000E-003   -3.758361983554976E-024
 -8.799999999999999E-003   -4.302878190382327E-024
 -8.699999999999999E-003   -4.342224090906187E-024
 -8.600000000000000E-003   -3.804216956160449E-024
 -8.499999999999999E-003   -2.687732153774855E-024
 -8.399999999999999E-003   -1.070994252956806E-024
 -8.300000000000000E-003    8.913835436797320E-025
 -8.199999999999999E-003    2.983464655086092E-024
 -8.100000000000000E-003    4.953976078000864E-024
 -8.000000000000000E-003    6.549994321423496E-024
 -7.899999999999999E-003    7.553247176376102E-024
 -7.800000000000000E-003    7.812882541759644E-024
 -7.699999999999999E-003    7.268443293819591E-024
 -7.599999999999999E-003    5.957931533039465E-024
 -7.499999999999999E-003    4.008166451492861E-024
 -7.399999999999999E-003    1.607982015256930E-024
 -7.299999999999999E-003   -1.031457089004003E-024
 -7.199999999999999E-003   -3.721374699183797E-024
 -7.100000000000000E-003   -6.334803262560741E-024
 -6.999999999999999E-003   -8.829629395659677E-024
 -6.899999999999999E-003   -1.124579574398691E-023
 -6.800000000000000E-003   -1.367131773496466E-023
 -6.699999999999999E-003   -1.617818026738042E-023
 -6.599999999999999E-003   -1.873690037620213E-023
 -6.499999999999999E-003   -2.112649900010742E-023
 -6.399999999999999E-003   -2.286285243459467E-023
 -6.299999999999999E-003   -2.317146415355970E-023
 -6.199999999999999E-003   -2.102869341159604E-023
 -6.100000000000000E-003   -1.528793799832785E-023
 -5.999999999999999E-003   -4.893702551282448E-024
 -5.899999999999999E-003    1.083152086881868E-023
 -5.800000000000000E-003    3.186303725249392E-023
 -5.699999999999999E-003    5.716696022702100E-023
 -5.599999999999999E-003    8.447909008645554E-023
 -5.499999999999999E-003    1.102427368777294E-022
 -5.399999999999999E-003    1.297703882783280E-022
 -5.299999999999999E-003    1.376715398228557E-022
 -5.199999999999999E-003    1.285517156743351E-022
 -5.099999999999999E-003    9.793999531858451E-023
 -4.999999999999999E-003    4.334886699786811E-023
 -4.899999999999999E-003   -3.467980539513478E-023
 -4.799999999999999E-003   -1.317264702174252E-022
 -4.699999999999999E-003   -2.390423169446005E-022
 -4.599999999999999E-003   -3.436779006125665E-022
 -4.499999999999999E-003   -4.293254947665087E-022
 -4.399999999999999E-003   -4.779248437903080E-022
 -4.299999999999999E-003   -4.719679589196345E-022
 -4.199999999999999E-003   -3.973120285881242E-022
 -4.099999999999999E-003   -2.461829295504144E-022
 -3.999999999999999E-003   -1.994939114666704E-023
 -3.899999999999999E-003    2.688097495066663E-022
 -3.799999999999999E-003    5.954166628855943E-022
 -3.699999999999999E-003    9.237779077450370E-022
 -3.599999999999999E-003    1.208873673814783E-021
 -3.499999999999999E-003    1.401066376122804E-021
 -3.399999999999999E-003    1.451974335519825E-021
 -3.299999999999999E-003    1.321379733221270E-021
 -3.199999999999999E-003    9.843911779582484E-022
 -3.099999999999999E-003    4.379107765694807E-022
 -2.999999999999999E-003   -2.946114223195736E-022
 -2.899999999999999E-003   -1.161074265010083E-021
 -2.799999999999999E-003   -2.081995328234833E-021
 -2.699999999999999E-003   -2.955518209815503E-021
 -2.599999999999999E-003   -3.666065290898064E-021
 -2.499999999999999E-003   -4.096045316861378E-021
 -2.399999999999999E-003   -4.139545536363375E-021
 -2.299999999999999E-003   -3.716551923927436E-021
 -2.199999999999999E-003   -2.786020438251559E-021
 -2.099999999999999E-003   -1.356102279271448E-021
 -1.999999999999999E-003    5.099558206253012E-022
 -1.899999999999999E-003    2.693293656068846E-021
 -1.799999999999999E-003    5.024758858402271E-021
 -1.699999999999999E-003    7.295853769406425E-021
 -1.599999999999999E-003    9.274410909874971E-021
 -1.499999999999999E-003    1.072355999746347E-020
 -1.399999999999999E-003    1.142218645638939E-020
 -1.299999999999999E-003    1.118499663682506E-020
 -1.199999999999999E-003    9.880485464342015E-021
 -1.099999999999999E-003    7.445527554820555E-021
 -9.999999999999989E-004    3.895879599104586E-021
 -8.999999999999990E-004   -6.675111200020785E-022
 -7.999999999999990E-004   -6.056033904193090E-021
 -6.999999999999989E-004   -1.199415265928024E-020
 -5.999999999999990E-004   -1.812286071715797E-020
 -4.999999999999989E-004   -2.400577197885263E-020
 -3.999999999999989E-004   -2.913853240540524E-020
 -2.999999999999989E-004   -3.296309318047173E-020
 -1.999999999999989E-004   -3.488917777667251E-020
 -9.999999999999892E-005   -3.432568603400569E-020
  1.084202172485504E-018   -3.072457986347748E-020
  1.000000000000011E-004   -2.363871311353284E-020
  2.000000000000011E-004   -1.279312783226395E-020
  3.000000000000011E-004    1.833542914642187E-021
  4.000000000000011E-004    1.992436417023958E-020
  5.000000000000011E-004    4.074638762464016E-020
  6.000000000000011E-004    6.309347925130639E-020
  7.000000000000011E-004    8.526506487070570E-020
  8.000000000000011E-004    1.050962857852536E-019
  9.000000000000012E-004    1.200528335053350E-019
  1.000000000000001E-003    1.273986516613047E-019
  1.100000000000001E-003    1.244371966120074E-019
  1.200000000000001E-003    1.088170009442213E-019
  1.300000000000001E-003    7.888150302414286E-020
  1.400000000000001E-003    3.403187464366047E-020
  1.500000000000001E-003   -2.493760893068874E-020
  1.600000000000001E-003   -9.557855178585296E-020
  1.700000000000001E-003   -1.736501132131566E-019
  1.800000000000001E-003   -2.531474098881272E-019
  1.900000000000001E-003   -3.265303768269892E-019
  2.000000000000001E-003   -3.851698380202783E-019
  2.100000000000001E-003   -4.200060828433217E-019
  2.200000000000001E-003   -4.223900213598057E-019
  2.300000000000001E-003   -3.850513520193569E-019
  2.400000000000001E-003   -3.031145083384986E-019
  2.500000000000001E-003   -1.750643289524138E-019
  2.600000000000001E-003   -3.553498564618574E-021
  2.700000000000001E-003    2.040576453651403E-019
  2.800000000000001E-003    4.355272172568683E-019
  2.900000000000001E-003    6.739996684181232E-019
  3.000000000000001E-003    8.987594169600271E-019
  3.100000000000001E-003    1.086473724325660E-018
  3.200000000000001E-003    1.212882674691442E-018
  3.300000000000001E-003    1.254848386120233E-018
  3.400000000000001E-003    1.192632409920004E-018
  3.500000000000001E-003    1.012233477488555E-018
  3.600000000000001E-003    7.075930233078489E-019
  3.700000000000001E-003    2.824645229778544E-019
  3.800000000000001E-003   -2.482589265791626E-019
  3.900000000000001E-003   -8.579412052967263E-019
  4.000000000000001E-003   -1.508478826740893E-018
  4.100000000000001E-003   -2.151560814650252E-018
  4.200000000000001E-003   -2.730960396631040E-018
  4.300000000000001E-003   -3.185838419814888E-018
  4.400000000000001E-003   -3.454961138074672E-018
  4.500000000000001E-003   -3.481656249393324E-018
  4.600000000000002E-003   -3.219248754784456E-018
  4.700000000000001E-003   -2.636641970888397E-018
  4.800000000000001E-003   -1.723637063463448E-018
  4.900000000000002E-003   -4.955333818405798E-019
  5.000000000000001E-003    1.003484908040074E-018
  5.100000000000001E-003    2.698672048519115E-018
  5.200000000000001E-003    4.485215314486716E-018
  5.300000000000002E-003    6.231284281057756E-018
  5.400000000000001E-003    7.783887845739705E-018
  5.500000000000001E-003    8.977612231119863E-018
  5.600000000000002E-003    9.646078135779608E-018
  5.700000000000001E-003    9.635700810763820E-018
  5.800000000000001E-003    8.821022653435857E-018
  5.900000000000002E-003    7.120628083160337E-018
  6.000000000000001E-003    4.512352929437564E-018
  6.100000000000001E-003    1.046338850586534E-018
  6.200000000000002E-003   -3.145660853087565E-018
  6.300000000000002E-003   -7.846248635439638E-018
  6.400000000000001E-003   -1.275502134646003E-017
  6.500000000000001E-003   -1.749890620463991E-017
  6.600000000000002E-003   -2.165073057864889E-017
  6.700000000000001E-003   -2.475590452862757E-017
  6.800000000000001E-003   -2.636635437079625E-017
  6.900000000000002E-003   -2.607999450363648E-017
  7.000000000000001E-003   -2.358325916905133E-017
  7.100000000000001E-003   -1.869346287691911E-017
  7.200000000000002E-003   -1.139725865798377E-017
  7.300000000000002E-003   -1.881130341445740E-018
  7.400000000000001E-003    9.450070518489672E-018
  7.500000000000001E-003    2.197017313820139E-017
  7.600000000000002E-003    3.484712169139477E-017
  7.700000000000001E-003    4.707849214189754E-017
  7.800000000000001E-003    5.754726729882113E-017
  7.900000000000001E-003    6.509633151670865E-017
  8.000000000000002E-003    6.861834404067541E-017
  8.100000000000001E-003    6.715577103621713E-017
  8.200000000000001E-003    6.000427826059233E-017
  8.300000000000002E-003    4.681131881908241E-017
  8.400000000000001E-003    2.766103344899860E-017
  8.500000000000002E-003    3.136374939733836E-018
  8.600000000000002E-003   -2.565015219218755E-017
  8.700000000000001E-003   -5.706424910508944E-017
  8.800000000000002E-003   -8.900122528619066E-017
  8.900000000000002E-003   -1.189833290014453E-016
  9.000000000000001E-003   -1.443019445532647E-016
  9.100000000000002E-003   -1.621997617738625E-016
  9.200000000000002E-003   -1.700842578761048E-016
  9.300000000000001E-003   -1.657599313711595E-016
  9.400000000000002E-003   -1.476635919994912E-016
  9.500000000000001E-003   -1.150845159024872E-016
  9.600000000000001E-003   -6.834963918724145E-017
  9.700000000000002E-003   -8.954075249076581E-018
  9.800000000000001E-003    6.038108073852693E-017
  9.900000000000001E-003    1.357394436267497E-016
  1.000000000000000E-002    2.121384263553209E-016
  1.010000000000000E-002    2.837614653767909E-016
  1.020000000000000E-002    3.442900802140011E-016
  1.030000000000000E-002    3.873243403413818E-016
  1.040000000000000E-002    4.068717789235892E-016
  1.050000000000000E-002    3.978764459973132E-016
  1.060000000000000E-002    3.567524419623174E-016
  1.070000000000000E-002    2.818808352008894E-016
  1.080000000000000E-002    1.740255866175204E-016
  1.090000000000000E-002    3.662405583818419E-017
  1.100000000000000E-002   -1.240888403381872E-016
  1.110000000000000E-002   -2.991571627445831E-016
  1.120000000000000E-002   -4.772039234098408E-016
  1.130000000000000E-002   -6.449635462562708E-016
  1.140000000000000E-002   -7.880386155250147E-016
  1.150000000000000E-002   -8.918536367783615E-016
  1.160000000000000E-002   -9.427596125389569E-016
  1.170000000000000E-002   -9.292235303696096E-016
  1.180000000000000E-002   -8.430226113921229E-016
  1.190000000000000E-002   -6.803492216957563E-016
  1.200000000000000E-002   -4.427278724003422E-016
  1.210000000000000E-002   -1.376460230121309E-016
  1.220000000000000E-002    2.211905212801683E-016
  1.230000000000000E-002    6.140495924959348E-016
  1.240000000000000E-002    1.015858055793976E-015
  1.250000000000000E-002    1.397395043594854E-015
  1.260000000000000E-002    1.726967826448137E-015
  1.270000000000000E-002    1.972504804090922E-015
  1.280000000000000E-002    2.103959380355898E-015
  1.290000000000000E-002    2.095876774782843E-015
  1.300000000000000E-002    1.929948855510621E-015
  1.310000000000000E-002    1.597355645226360E-015
  1.320000000000000E-002    1.100685476888581E-015
  1.330000000000000E-002    4.552314971985626E-016
  1.340000000000000E-002   -3.105128192069963E-016
  1.350000000000000E-002   -1.155301675599885E-015
  1.360000000000000E-002   -2.026609027260107E-015
  1.370000000000000E-002   -2.863141442435322E-015
  1.380000000000000E-002   -3.598328242504141E-015
  1.390000000000000E-002   -4.164642879829543E-015
  1.400000000000000E-002   -4.498530635008304E-015
  1.410000000000000E-002   -4.545642753415125E-015
  1.420000000000000E-002   -4.266019365744968E-015
  1.430000000000000E-002   -3.638827937250856E-015
  1.440000000000000E-002   -2.666251092772561E-015
  1.450000000000000E-002   -1.376127333078115E-015
  1.460000000000000E-002    1.769864191153089E-016
  1.470000000000000E-002    1.912600582640903E-015
  1.480000000000000E-002    3.727080590597092E-015
  1.490000000000000E-002    5.498460609621828E-015
  1.500000000000000E-002    7.093162806139343E-015
  1.510000000000000E-002    8.374347087266598E-015
  1.520000000000000E-002    9.211466302328615E-015
  1.530000000000000E-002    9.490474902226475E-015
  1.540000000000000E-002    9.124011930278288E-015
  1.550000000000000E-002    8.060827455086908E-015
  1.560000000000000E-002    6.293678714402549E-015
  1.570000000000000E-002    3.864963644782566E-015
  1.580000000000000E-002    8.694220773700555E-016
  1.590000000000000E-002   -2.546615917352060E-015
  1.600000000000000E-002   -6.189760069483013E-015
  1.610000000000000E-002   -9.827973828122012E-015
  1.620000000000000E-002   -1.320270242061873E-014
  1.630000000000000E-002   -1.604425932846598E-014
  1.640000000000000E-002   -1.808973787475491E-014
  1.650000000000000E-002   -1.910245337095299E-014
  1.660000000000000E-002   -1.889169446931793E-014
  1.670000000000000E-002   -1.733142299703189E-014
  1.680000000000000E-002   -1.437646058352540E-014
  1.690000000000000E-002   -1.007474599897296E-014
  1.700000000000000E-002   -4.574365608596460E-015
  1.710000000000000E-002    1.875739987620999E-015
  1.720000000000000E-002    8.932098232106127E-015
  1.730000000000000E-002    1.617040664368752E-014
  1.740000000000000E-002    2.310642721281754E-014
  1.750000000000000E-002    2.922337704149433E-014
  1.760000000000000E-002    3.400457988401328E-014
  1.770000000000000E-002    3.696963155388767E-014
  1.780000000000000E-002    3.771192145054911E-014
  1.790000000000000E-002    3.593498949674882E-014
  1.800000000000000E-002    3.148504363883736E-014
  1.810000000000000E-002    2.437698737720363E-014
  1.820000000000000E-002    1.481138857731879E-014
  1.830000000000000E-002    3.180318929568941E-015
  1.840000000000000E-002   -9.939536904368254E-015
  1.850000000000000E-002   -2.380729406783021E-014
  1.860000000000000E-002   -3.755180219849393E-014
  1.870000000000000E-002   -5.021811534689014E-014