 -4.000000000000000E-002    0.000000000000000E+000
 -3.990000000000000E-002    0.000000000000000E+000
 -3.980000000000000E-002    0.000000000000000E+000
 -3.970000000000000E-002    0.000000000000000E+000
 -3.960000000000000E-002    0.000000000000000E+000
 -3.950000000000000E-002    0.000000000000000E+000
 -3.940000000000000E-002    0.000000000000000E+000
 -3.930000000000000E-002    0.000000000000000E+000
 -3.920000000000000E-002    0.000000000000000E+000
 -3.910000000000000E-002    0.000000000000000E+000
 -3.900000000000000E-002    0.000000000000000E+000
 -3.890000000000000E-002    0.000000000000000E+000
 -3.880000000000000E-002    0.000000000000000E+000
 -3.870000000000000E-002    0.000000000000000E+000
 -3.860000000000000E-002    0.000000000000000E+000
 -3.850000000000000E-002    0.000000000000000E+000
 -3.840000000000000E-002    0.000000000000000E+000
 -3.830000000000000E-002    0.000000000000000E+000
 -3.820000000000000E-002    0.000000000000000E+000
 -3.810000000000000E-002    0.000000000000000E+000
 -3.800000000000000E-002    0.000000000000000E+000
 -3.790000000000000E-002    0.000000000000000E+000
 -3.780000000000000E-002    0.000000000000000E+000
 -3.770000000000000E-002    0.000000000000000E+000
 -3.760000000000000E-002    0.000000000000000E+000
 -3.750000000000000E-002    0.000000000000000E+000
 -3.740000000000000E-002    0.000000000000000E+000
 -3.730000000000000E-002    0.000000000000000E+000
 -3.720000000000000E-002    0.000000000000000E+000
 -3.710000000000000E-002    0.000000000000000E+000
 -3.700000000000000E-002    0.000000000000000E+000
 -3.690000000000000E-002    0.000000000000000E+000
 -3.680000000000000E-002    8.829331882213057E-047
 -3.670000000000000E-002    1.753315158847851E-046
 -3.660000000000000E-002    4.364461070727486E-046
 -3.650000000000000E-002    1.239342814932327E-045
 -3.640000000000000E-002    3.823012051176897E-045
 -3.630000000000000E-002    1.020078805941978E-044
 -3.620000000000000E-002    2.874516277064698E-044
 -3.610000000000000E-002    7.693581149794106E-044
 -3.600000000000000E-002    1.935365020794158E-043
 -3.590000000000000E-002    4.630976189670781E-043
 -3.580000000000000E-002    1.062279728819289E-042
 -3.570000000000000E-002    2.334256898241730E-042
 -3.560000000000000E-002    4.907113324368691E-042
 -3.550000000000000E-002    9.862292594761271E-042
 -3.540000000000000E-002    1.890177019070162E-041
 -3.530000000000000E-002    3.441675461189433E-041
 -3.520000000000000E-002    5.914107156831391E-041
 -3.510000000000000E-002    9.478209849256194E-041
 -3.500000000000000E-002    1.384768283003137E-040
 -3.490000000000000E-002    1.751226741279749E-040
 -3.480000000000000E-002    1.626170137246645E-040
 -3.470000000000000E-002    5.961252518669273E-042
 -3.460000000000000E-002   -4.843806846210562E-040
 -3.450000000000000E-002   -1.653484297031760E-039
 -3.440000000000000E-002   -4.081366174732436E-039
 -3.430000000000000E-002   -8.668726969959809E-039
 -3.420000000000000E-002   -1.669494669197599E-038
 -3.410000000000000E-002   -2.977621923153594E-038
 -3.400000000000000E-002   -4.959255688423074E-038
 -3.390000000000000E-002   -7.716966995882933E-038
 -3.380000000000000E-002   -1.113998172919891E-037
 -3.370000000000000E-002   -1.463824253817772E-037
 -3.360000000000000E-002   -1.671019671688343E-037
 -3.350000000000000E-002   -1.430118904310009E-037
 -3.340000000000000E-002   -1.938202761590100E-038
 -3.330000000000000E-002    2.930309835672425E-037
 -3.320000000000000E-002    9.280899225196346E-037
 -3.310000000000000E-002    2.070022470083793E-036
 -3.300000000000000E-002    3.947316575349688E-036
 -3.290000000000000E-002    6.802739978632782E-036
 -3.280000000000000E-002    1.082199468206089E-035
 -3.270000000000000E-002    1.599798426727100E-035
 -3.260000000000000E-002    2.190388930204281E-035
 -3.250000000000000E-002    2.734929972922530E-035
 -3.240000000000000E-002    2.990436753431515E-035
 -3.230000000000000E-002    2.530390230194669E-035
 -3.220000000000000E-002    6.794572212242535E-036
 -3.210000000000000E-002   -3.542752890791230E-035
 -3.200000000000000E-002   -1.144180399824994E-034
 -3.190000000000000E-002   -2.458890868832128E-034
 -3.180000000000000E-002   -4.461881080688899E-034
 -3.170000000000000E-002   -7.280256741461279E-034
 -3.160000000000000E-002   -1.092989010120521E-033
 -3.150000000000000E-002   -1.519888620534935E-033
 -3.140000000000000E-002   -1.948286477816888E-033
 -3.130000000000000E-002   -2.257315737592469E-033
 -3.120000000000000E-002   -2.241337613773811E-033
 -3.110000000000000E-002   -1.586270840564418E-033
 -3.100000000000000E-002    1.462908964807950E-034
 -3.090000000000000E-002    3.515848958302025E-033
 -3.080000000000000E-002    9.164538935222175E-033
 -3.070000000000000E-002    1.772272716269814E-032
 -3.060000000000000E-002    2.963499448354397E-032
 -3.050000000000000E-002    4.488356482093658E-032
 -3.040000000000000E-002    6.259355249514557E-032
 -3.030000000000000E-002    8.052163519575849E-032
 -3.020000000000000E-002    9.446029326261285E-032
 -3.010000000000000E-002    9.763639968533493E-032
 -3.000000000000000E-002    8.024620067095639E-032
 -2.990000000000000E-002    2.934562628663675E-032
 -2.980000000000000E-002   -7.060293194532891E-032
 -2.970000000000000E-002   -2.361556076466659E-031
 -2.960000000000000E-002   -4.818766669314698E-031
 -2.950000000000000E-002   -8.155209164819572E-031
 -2.940000000000000E-002   -1.231182932909070E-030
 -2.930000000000000E-002   -1.700487341784607E-030
 -2.920000000000000E-002   -2.162385446951731E-030
 -2.910000000000000E-002   -2.512821857718304E-030
 -2.900000000000000E-002   -2.596424551709032E-030
 -2.890000000000000E-002   -2.203375987175010E-030
 -2.880000000000000E-002   -1.075599510017032E-030
 -2.870000000000000E-002    1.072885433820666E-030
 -2.860000000000000E-002    4.516441053965659E-030
 -2.850000000000000E-002    9.454936658224404E-030
 -2.840000000000000E-002    1.592550727128350E-029
 -2.830000000000000E-002    2.369084330818576E-029
 -2.820000000000000E-002    3.211174442174950E-029
 -2.810000000000000E-002    4.001938894343499E-029
 -2.800000000000000E-002    4.561187777517430E-029
 -2.790000000000000E-002    4.640904915889895E-029
 -2.780000000000000E-002    3.930773711038039E-029
 -2.770000000000000E-002    2.078412769480306E-029
 -2.760000000000000E-002   -1.271197046469790E-029
 -2.750000000000000E-002   -6.413741100376351E-029
 -2.740000000000000E-002   -1.350005206219769E-028
 -2.730000000000000E-002   -2.242976146958663E-028
 -2.720000000000000E-002   -3.273199008308029E-028
 -2.710000000000000E-002   -4.344718655878677E-028
 -2.700000000000000E-002   -5.303110671903417E-028
 -2.690000000000000E-002   -5.930827705756937E-028
 -2.680000000000000E-002   -5.950708552914127E-028
 -2.670000000000000E-002   -5.040992890001435E-028
 -2.660000000000000E-002   -2.864821596761923E-028
 -2.650000000000000E-002    8.838343854517975E-029
 -2.640000000000000E-002    6.417677960502999E-028
 -2.630000000000000E-002    1.377948685980696E-027
 -2.620000000000000E-002    2.275718299577572E-027
 -2.610000000000000E-002    3.280006520257885E-027
 -2.600000000000000E-002    4.294941030142271E-027
 -2.590000000000000E-002    5.179981725303798E-027
 -2.580000000000000E-002    5.750943538452384E-027
 -2.570000000000000E-002    5.787693097040196E-027
 -2.560000000000000E-002    5.050006583190377E-027
 -2.550000000000000E-002    3.302431539213156E-027
 -2.540000000000000E-002    3.480310227668966E-028
 -2.530000000000000E-002   -3.930401835827482E-027
 -2.520000000000000E-002   -9.524559258927318E-027
 -2.510000000000000E-002   -1.625473383497799E-026
 -2.500000000000000E-002   -2.372971890956435E-026
 -2.490000000000000E-002   -3.131941524243307E-026
 -2.480000000000000E-002   -3.814750170189918E-026
 -2.470000000000000E-002   -4.311109985931466E-026
 -2.460000000000000E-002   -4.493299168196532E-026
 -2.450000000000000E-002   -4.224956578268272E-026
 -2.440000000000000E-002   -3.373443459230488E-026
 -2.430000000000000E-002   -1.825373342263164E-026
 -2.420000000000000E-002    4.954974316699420E-027
 -2.410000000000000E-002    3.609219118349219E-026
 -2.400000000000000E-002    7.460959907195636E-026
 -2.390000000000000E-002    1.190440916427314E-025
 -2.380000000000000E-002    1.668909308772585E-025
 -2.370000000000000E-002    2.145334980307670E-025
 -2.360000000000000E-002    2.572457974465253E-025
 -2.350000000000000E-002    2.892815893705895E-025
 -2.340000000000000E-002    3.040620119121708E-025
 -2.330000000000000E-002    2.944722937924862E-025
 -2.320000000000000E-002    2.532777094090048E-025
 -2.310000000000000E-002    1.736692165133682E-025
 -2.300000000000000E-002    4.994931676496323E-026
 -2.290000000000000E-002   -1.216336940545272E-025
 -2.280000000000000E-002   -3.419015858112250E-025
 -2.270000000000000E-002   -6.076256676679771E-025
 -2.260000000000000E-002   -9.103091004171546E-025
 -2.250000000000000E-002   -1.234949447119905E-024
 -2.240000000000000E-002   -1.558910519887631E-024
 -2.230000000000000E-002   -1.851092919213138E-024
 -2.220000000000000E-002   -2.071657270297049E-024
 -2.210000000000000E-002   -2.172609412156807E-024
 -2.200000000000000E-002   -2.099589246228673E-024
 -2.190000000000000E-002   -1.795196873148265E-024
 -2.180000000000000E-002   -1.204121257458674E-024
 -2.170000000000000E-002   -2.801948486574504E-025
 -2.160000000000000E-002    1.004730082641852E-024
 -2.150000000000000E-002    2.650494583067410E-024
 -2.140000000000000E-002    4.617723919694108E-024
 -2.130000000000000E-002    6.817490594937280E-024
 -2.120000000000000E-002    9.103129111520305E-024
 -2.110000000000000E-002    1.126609120768944E-023
 -2.100000000000000E-002    1.303786176858602E-023
 -2.090000000000000E-002    1.409986221885133E-023
 -2.080000000000000E-002    1.410285546032737E-023
 -2.070000000000000E-002    1.269660211563557E-023
 -2.060000000000000E-002    9.569419461001935E-024
 -2.050000000000000E-002    4.495865872598360E-024
 -2.040000000000000E-002   -2.610843446552352E-024
 -2.030000000000000E-002   -1.164671650974184E-023
 -2.020000000000000E-002   -2.227165053382107E-023
 -2.010000000000000E-002   -3.387837994697343E-023
 -2.000000000000000E-002   -4.558349363777659E-023
 -1.990000000000000E-002   -5.624768424353328E-023
 -1.980000000000000E-002   -6.453062055315232E-023
 -1.970000000000000E-002   -6.898293596301568E-023
 -1.960000000000000E-002   -6.817383091128209E-023
 -1.950000000000000E-002   -6.084805417066467E-023
 -1.940000000000000E-002   -4.610082935651874E-023
 -1.930000000000000E-002   -2.355440482397298E-023
 -1.920000000000000E-002    6.484070223353983E-024
 -1.910000000000000E-002    4.290596858992237E-023
 -1.900000000000000E-002    8.374840302340158E-023
 -1.890000000000000E-002    1.262248483724022E-022
 -1.880000000000000E-002    1.668525176511740E-022
 -1.870000000000000E-002    2.016807641741006E-022
 -1.860000000000000E-002    2.266128857652936E-022
 -1.850000000000000E-002    2.378005678503566E-022
 -1.840000000000000E-002    2.320767294099582E-022
 -1.830000000000000E-002    2.073811056407249E-022
 -1.820000000000000E-002    1.631245388224920E-022
 -1.810000000000000E-002    1.004358621446380E-022
 -1.800000000000000E-002    2.223977366436378E-023
 -1.790000000000000E-002   -6.687310489984286E-023
 -1.780000000000000E-002   -1.610016986123164E-022
 -1.770000000000000E-002   -2.535050172981805E-022
 -1.760000000000000E-002   -3.377445000488435E-022
 -1.750000000000000E-002   -4.079202983606905E-022
 -1.740000000000000E-002   -4.598931645079799E-022
 -1.730000000000000E-002   -4.918609280133607E-022
 -1.720000000000000E-002   -5.047505960828218E-022
 -1.710000000000000E-002   -5.021981228484630E-022
 -1.700000000000000E-002   -4.900205344695289E-022
 -1.690000000000000E-002   -4.751418716109832E-022
 -1.680000000000000E-002   -4.640117048175625E-022
 -1.670000000000000E-002   -4.606479432002027E-022
 -1.660000000000000E-002   -4.645330711256660E-022
 -1.650000000000000E-002   -4.686856242693684E-022
 -1.640000000000000E-002   -4.582934234036476E-022
 -1.630000000000000E-002   -4.103243219511143E-022
 -1.620000000000000E-002   -2.945007907600007E-022
 -1.610000000000000E-002   -7.592945713197383E-023
 -1.600000000000000E-002    2.804905866576508E-022
 -1.590000000000000E-002    8.039918831849343E-022
 -1.580000000000000E-002    1.510591810769379E-021
 -1.570000000000000E-002    2.395183665009735E-021
 -1.560000000000000E-002    3.424066250357671E-021
 -1.550000000000000E-002    4.529147971469240E-021
 -1.540000000000000E-002    5.605176796947057E-021
 -1.530000000000000E-002    6.511304056685364E-021
 -1.520000000000000E-002    7.078046738586065E-021
 -1.510000000000000E-002    7.120243573993318E-021
 -1.500000000000000E-002    6.455939252004937E-021
 -1.490000000000000E-002    4.930277556502470E-021
 -1.480000000000000E-002    2.442565684192381E-021
 -1.470000000000000E-002   -1.026245611028001E-021
 -1.460000000000000E-002   -5.389174592688279E-021
 -1.450000000000000E-002   -1.043587366303355E-020
 -1.440000000000000E-002   -1.582633395448893E-020
 -1.430000000000000E-002   -2.109907751816868E-020
 -1.420000000000000E-002   -2.569615507329180E-020
 -1.410000000000000E-002   -2.900557125607913E-020
 -1.400000000000000E-002   -3.041955266538445E-020
 -1.390000000000000E-002   -2.940465579380227E-020
 -1.380000000000000E-002   -2.557723950377570E-020
 -1.370000000000000E-002   -1.877578586705181E-020
 -1.360000000000000E-002   -9.120195017047484E-021
 -1.350000000000000E-002    2.952055236250159E-021
 -1.340000000000000E-002    1.668192147778914E-020
 -1.330000000000000E-002    3.102342911071420E-020
 -1.320000000000000E-002    4.471943827835269E-020
 -1.310000000000000E-002    5.641593506932872E-020
 -1.300000000000000E-002    6.480652996078411E-020
 -1.290000000000000E-002    6.879316920459722E-020
 -1.280000000000000E-002    6.764433717860406E-020
 -1.270000000000000E-002    6.112898898351061E-020
 -1.260000000000000E-002    4.960391490384570E-020
 -1.250000000000000E-002    3.403487572013376E-020
 -1.240000000000000E-002    1.593759948569387E-020
 -1.230000000000000E-002   -2.766289002788357E-021
 -1.220000000000000E-002   -1.997219738097716E-020
 -1.210000000000000E-002   -3.367570115201880E-020
 -1.200000000000000E-002   -4.228529044546471E-020
 -1.190000000000000E-002   -4.492449834962663E-020
 -1.180000000000000E-002   -4.167742114440752E-020
 -1.170000000000000E-002   -3.373156458416542E-020
 -1.160000000000000E-002   -2.337853704253820E-020
 -1.150000000000000E-002   -1.384630359765818E-020
 -1.140000000000000E-002   -8.956254334327674E-021
 -1.130000000000000E-002   -1.262201664426347E-020
 -1.120000000000000E-002   -2.823248877882341E-020
 -1.110000000000000E-002   -5.798553035031843E-020
 -1.100000000000000E-002   -1.022571513191199E-019
 -1.090000000000000E-002   -1.591011077317669E-019
 -1.080000000000000E-002   -2.239717862867495E-019
 -1.070000000000000E-002   -2.897486032722722E-019
 -1.060000000000000E-002   -3.471119885401956E-019
 -1.050000000000000E-002   -3.852817619657944E-019
 -1.040000000000000E-002   -3.930824871759702E-019
 -1.030000000000000E-002   -3.602516048935075E-019
 -1.020000000000000E-002   -2.788622274694626E-019
 -1.010000000000000E-002   -1.446998838715337E-019
 -1.000000000000000E-002    4.158317751339376E-020
 -9.899999999999999E-003    2.737064554573672E-019
 -9.800000000000000E-003    5.395330424785372E-019
 -9.699999999999999E-003    8.214640480253091E-019
 -9.599999999999999E-003    1.097475193900694E-018
 -9.500000000000000E-003    1.342736611863144E-018
 -9.399999999999999E-003    1.531677876407725E-018
 -9.299999999999999E-003    1.640292722689168E-018
 -9.200000000000000E-003    1.648433931598865E-018
 -9.099999999999999E-003    1.541833467747037E-018
 -8.999999999999999E-003    1.313606640587352E-018
 -8.900000000000000E-003    9.650563336540892E-019
 -8.799999999999999E-003    5.056832058267901E-019
 -8.699999999999999E-003   -4.758245280607531E-020
 -8.600000000000000E-003   -6.717967772783920E-019
 -8.499999999999999E-003   -1.339834641424978E-018
 -8.399999999999999E-003   -2.022333086346228E-018
 -8.300000000000000E-003   -2.689417649038322E-018
 -8.199999999999999E-003   -3.311910223366699E-018
 -8.100000000000000E-003   -3.861808862551658E-018
 -8.000000000000000E-003   -4.311963642413488E-018
 -7.899999999999999E-003   -4.635050083701356E-018
 -7.800000000000000E-003   -4.802124167676276E-018
 -7.699999999999999E-003   -4.781204405699248E-018
 -7.599999999999999E-003   -4.536442202925303E-018
 -7.499999999999999E-003   -4.028473357111700E-018
 -7.399999999999999E-003   -3.216477267374076E-018
 -7.299999999999999E-003   -2.062294432731321E-018
 -7.199999999999999E-003   -5.366798807947231E-019
 -7.100000000000000E-003    1.372586334558424E-018
 -6.999999999999999E-003    3.651398612815365E-018
 -6.899999999999999E-003    6.249882439583016E-018
 -6.800000000000000E-003    9.074160441664066E-018
 -6.699999999999999E-003    1.198086036348210E-017
 -6.599999999999999E-003    1.477589786179855E-017
 -6.499999999999999E-003    1.721886671729348E-017
 -6.399999999999999E-003    1.903394524741623E-017
 -6.299999999999999E-003    1.992761974282814E-017
 -6.199999999999999E-003    1.961275338266183E-017
 -6.100000000000000E-003    1.783769417625623E-017
 -5.999999999999999E-003    1.441829818371809E-017
 -5.899999999999999E-003    9.270020880535410E-018
 -5.800000000000000E-003    2.436749173524987E-018
 -5.699999999999999E-003   -5.887175459598156E-018
 -5.599999999999999E-003   -1.534511159404324E-017
 -5.499999999999999E-003   -2.541932525832166E-017
 -5.399999999999999E-003   -3.544720482845230E-017
 -5.299999999999999E-003   -4.465327619305833E-017
 -5.199999999999999E-003   -5.219638914713052E-017
 -5.099999999999999E-003   -5.722994379262614E-017
 -4.999999999999999E-003   -5.897163725672091E-017
 -4.899999999999999E-003   -5.677778377952095E-017
 -4.799999999999999E-003   -5.021651405259220E-017
 -4.699999999999999E-003   -3.913338374819995E-017
 -4.599999999999999E-003   -2.370296588342626E-017
 -4.499999999999999E-003   -4.460405834092020E-018
 -4.399999999999999E-003    1.769211382068474E-017
 -4.299999999999999E-003    4.150764696790385E-017
 -4.199999999999999E-003    6.544725724014087E-017
 -4.099999999999999E-003    8.776289118009309E-017
 -3.999999999999999E-003    1.066076204274221E-016
 -3.899999999999999E-003    1.201678967083138E-016
 -3.799999999999999E-003    1.268103682779803E-016
 -3.699999999999999E-003    1.252332842753005E-016
 -3.599999999999999E-003    1.146111532914766E-016
 -3.499999999999999E-003    9.471987095135455E-017
 -3.399999999999999E-003    6.602938056172857E-017
 -3.299999999999999E-003    2.975154143401623E-017
 -3.199999999999999E-003   -1.216742109335981E-017
 -3.099999999999999E-003   -5.711727873574478E-017
 -2.999999999999999E-003   -1.019603452421230E-016
 -2.899999999999999E-003   -1.432319238878053E-016
 -2.799999999999999E-003   -1.773962369350734E-016
 -2.699999999999999E-003   -2.011428358391890E-016
 -2.599999999999999E-003   -2.117017081246166E-016
 -2.499999999999999E-003   -2.071500149298103E-016
 -2.399999999999999E-003   -1.866793766511940E-016
 -2.299999999999999E-003   -1.507916455507815E-016
 -2.199999999999999E-003   -1.013926351756457E-016
 -2.099999999999999E-003   -4.175936562611766E-017
 -1.999999999999999E-003    2.363438936592972E-017
 -1.899999999999999E-003    8.943639914667740E-017
 -1.799999999999999E-003    1.498647093913813E-016
 -1.699999999999999E-003    1.992567966169818E-016
 -1.599999999999999E-003    2.326725222641654E-016
 -1.499999999999999E-003    2.464910187160000E-016
 -1.399999999999999E-003    2.389321212848499E-016
 -1.299999999999999E-003    2.104316827663532E-016
 -1.199999999999999E-003    1.638049760791548E-016
 -1.099999999999999E-003    1.041484745772673E-016
 -9.999999999999989E-004    3.845298416184795E-017
 -8.999999999999990E-004   -2.506755692944963E-017
 -7.999999999999990E-004   -7.789195894815520E-017
 -6.999999999999989E-004   -1.122764701295903E-016
 -5.999999999999990E-004   -1.223985113651841E-016
 -4.999999999999989E-004   -1.054256236703435E-016
 -3.999999999999989E-004   -6.236203406809328E-017
 -2.999999999999989E-004    1.470905022778982E-018
 -1.999999999999989E-004    7.644271270808697E-017
 -9.999999999999892E-005    1.491923217041499E-016
  1.084202172485504E-018    2.038028958406171E-016
  1.000000000000011E-004    2.235296767889331E-016
  2.000000000000011E-004    1.929622540167698E-016
  3.000000000000011E-004    1.004317906341481E-016
  4.000000000000011E-004   -5.958988446790067E-017
  5.000000000000011E-004   -2.843912802201400E-016
  6.000000000000011E-004   -5.615276454361000E-016
  7.000000000000011E-004   -8.682192369506992E-016
  8.000000000000011E-004   -1.171868931028154E-015
  9.000000000000012E-004   -1.431837107309563E-015
  1.000000000000001E-003   -1.602491562485280E-015
  1.100000000000001E-003   -1.637410826437252E-015
  1.200000000000001E-003   -1.494474266967990E-015
  1.300000000000001E-003   -1.141436176224889E-015
  1.400000000000001E-003   -5.614695365454575E-016
  1.500000000000001E-003    2.419078541536114E-016
  1.600000000000001E-003    1.241128289791181E-015
  1.700000000000001E-003    2.382656441238883E-015
  1.800000000000001E-003    3.587322131668966E-015
  1.900000000000001E-003    4.753204062182978E-015
  2.000000000000001E-003    5.761160741869694E-015
  2.100000000000001E-003    6.482862819525928E-015
  2.200000000000001E-003    6.790931371945052E-015
  2.300000000000001E-003    6.570549881717749E-015
  2.400000000000001E-003    5.731717934260254E-015
  2.500000000000001E-003    4.221164189192250E-015
  2.600000000000001E-003    2.032866943644665E-015
  2.700000000000001E-003   -7.838537106685013E-016
  2.800000000000001E-003   -4.119616195187484E-015
  2.900000000000001E-003   -7.804385845038997E-015
  3.000000000000001E-003   -1.161152385013365E-014
  3.100000000000001E-003   -1.526668121147945E-014
  3.200000000000001E-003   -1.846140288444697E-014
  3.300000000000001E-003   -2.087098801270772E-014
  3.400000000000001E-003   -2.217580416530539E-014
  3.500000000000001E-003   -2.208499570479859E-014
  3.600000000000001E-003   -2.036127102270452E-014
  3.700000000000001E-003   -1.684531400991612E-014
  3.800000000000001E-003   -1.147824972241823E-014
  3.900000000000001E-003   -4.320576656822674E-015
  4.000000000000001E-003    4.433979263258784E-015
  4.100000000000001E-003    1.445111676922123E-014
  4.200000000000001E-003    2.525639029662562E-014
  4.300000000000001E-003    3.624443990584715E-014
  4.400000000000001E-003    4.669775073537698E-014
  4.500000000000001E-003    5.581528745845484E-014
  4.600000000000002E-003    6.275090786709077E-014
  4.700000000000001E-003    6.666090061366013E-014
  4.800000000000001E-003    6.675938596677065E-014
  4.900000000000002E-003    6.237957876059387E-014
  5.000000000000001E-003    5.303819317613273E-014
  5.100000000000001E-003    3.849945220729473E-014
  5.200000000000001E-003    1.883448782868298E-014
  5.300000000000002E-003   -5.528810555695574E-015
  5.400000000000001E-003   -3.377074236326841E-014
  5.500000000000001E-003   -6.466487838629760E-014
  5.600000000000002E-003   -9.658845523902866E-014
  5.700000000000001E-003   -1.275623363798783E-013
  5.800000000000001E-003   -1.553235831139246E-013
  5.900000000000002E-003   -1.774317395882153E-013
  6.000000000000001E-003   -1.914077080727080E-013
  6.100000000000001E-003   -1.949010697990815E-013
  6.200000000000002E-003   -1.858789742609826E-013
  6.300000000000002E-003   -1.628263928850195E-013
  6.400000000000001E-003   -1.249446778907557E-013
  6.500000000000001E-003   -7.233328805610020E-014
  6.600000000000002E-003   -6.137692120503715E-015
  6.700000000000001E-003    7.135381301021957E-014
  6.800000000000001E-003    1.566806181472929E-013
  6.900000000000002E-003    2.452615485081704E-013
  7.000000000000001E-003    3.315377896297861E-013
  7.100000000000001E-003    4.092113042073319E-013
  7.200000000000002E-003    4.715764960809411E-013
  7.300000000000002E-003    5.119350690920356E-013
  7.400000000000001E-003    5.240762282070947E-013
  7.500000000000001E-003    5.027963600687636E-013
  7.600000000000002E-003    4.444250215292461E-013
  7.700000000000001E-003    3.473198287012752E-013
  7.800000000000001E-003    2.122879138321450E-013
  7.900000000000001E-003    4.289254985019562E-014
  8.000000000000002E-003   -1.543942241414861E-013
  8.100000000000001E-003   -3.702263952903983E-013
  8.200000000000001E-003   -5.926294446276167E-013
  8.300000000000002E-003   -8.074678220103590E-013
  8.400000000000001E-003   -9.991308297744022E-013
  8.500000000000002E-003   -1.151416718769765E-012
  8.600000000000002E-003   -1.248577059293223E-012
  8.700000000000001E-003   -1.276468754179189E-012
  8.800000000000002E-003   -1.223744674481661E-012
  8.900000000000002E-003   -1.083004243957282E-012
  9.000000000000001E-003   -8.518171887435594E-013
  9.100000000000002E-003   -5.335339819678371E-013
  9.200000000000002E-003   -1.377996911659154E-013
  9.300000000000001E-003    3.193004254064708E-013
  9.400000000000002E-003    8.155172909206853E-013
  9.500000000000001E-003    1.323167446345352E-012
  9.600000000000001E-003    1.810319434475392E-012
  9.700000000000002E-003    2.242408554914079E-012
  9.800000000000001E-003    2.584221062983115E-012
  9.900000000000001E-003    2.802155617623064E-012
  1.000000000000000E-002    2.866640904544246E-012
  1.010000000000000E-002    2.754567699212138E-012
  1.020000000000000E-002    2.451572617777797E-012
  1.030000000000000E-002    1.954006781911522E-012
  1.040000000000000E-002    1.270425270720907E-012
  1.050000000000000E-002    4.224447882239745E-013
  1.060000000000000E-002   -5.551541924341977E-013
  1.070000000000000E-002   -1.615170180438675E-012
  1.080000000000000E-002   -2.699612871614038E-012
  1.090000000000000E-002   -3.742214019552503E-012
  1.100000000000000E-002   -4.671751210291735E-012
  1.110000000000000E-002   -5.416055860474348E-012
  1.120000000000000E-002   -5.906524921378450E-012
  1.130000000000000E-002   -6.082896088657401E-012
  1.140000000000000E-002   -5.898015689730881E-012
  1.150000000000000E-002   -5.322289127160745E-012
  1.160000000000000E-002   -4.347500088986498E-012
  1.170000000000000E-002   -2.989685463137677E-012
  1.180000000000000E-002   -1.290785880458827E-012
  1.190000000000000E-002    6.811644542868610E-013
  1.200000000000000E-002    2.833477525756495E-012
  1.210000000000000E-002    5.051960261568599E-012
  1.220000000000000E-002    7.205758033474339E-012
  1.230000000000000E-002    9.153764380231466E-012
  1.240000000000000E-002    1.075236411708124E-011
  1.250000000000000E-002    1.186415313367342E-011
  1.260000000000000E-002    1.236720434172611E-011
  1.270000000000000E-002    1.216433618764319E-011
  1.280000000000000E-002    1.119181584144676E-011
  1.290000000000000E-002    9.426881289589203E-012
  1.300000000000000E-002    6.893487791267608E-012
  1.310000000000000E-002    3.665732812749214E-012
  1.320000000000000E-002   -1.315029190118973E-013
  1.330000000000000E-002   -4.325021044754161E-012
  1.340000000000000E-002   -8.699050356417930E-012
  1.350000000000000E-002   -1.300424343828223E-011
  1.360000000000000E-002   -1.696969399697138E-011
  1.370000000000000E-002   -2.031752949755733E-011
  1.380000000000000E-002   -2.277942053758347E-011
  1.390000000000000E-002   -2.411416494267732E-011
  1.400000000000000E-002   -2.412533894452397E-011
  1.410000000000000E-002   -2.267794084888165E-011
  1.420000000000000E-002   -1.971283888835888E-011
  1.430000000000000E-002   -1.525793627207714E-011
  1.440000000000000E-002   -9.435023905122206E-012
  1.450000000000000E-002   -2.461455240429822E-012
  1.460000000000000E-002    5.353943628559927E-012
  1.470000000000000E-002    1.362102439212940E-011
  1.480000000000000E-002    2.188447497981551E-011
  1.490000000000000E-002    2.964553296062009E-011
  1.500000000000000E-002    3.638842255294974E-011
  1.510000000000000E-002    4.161028325831163E-011
  1.520000000000000E-002    4.485308603180328E-011
  1.530000000000000E-002    4.573568642274098E-011
  1.540000000000000E-002    4.398404668043068E-011
  1.550000000000000E-002    3.945763475747400E-011
  1.560000000000000E-002    3.216997455268256E-011
  1.570000000000000E-002    2.230156116663574E-011
  1.580000000000000E-002    1.020376557165765E-011
  1.590000000000000E-002   -3.607375895448765E-012
  1.600000000000000E-002   -1.846789851506832E-011
  1.610000000000000E-002   -3.359305911235455E-011
  1.620000000000000E-002   -4.811407020352491E-011
  1.630000000000000E-002   -6.112298168106028E-011
  1.640000000000000E-002   -7.172365046115080E-011
  1.650000000000000E-002   -7.908611462371959E-011
  1.660000000000000E-002   -8.250145336333039E-011
  1.670000000000000E-002   -8.143374393532921E-011
  1.680000000000000E-002   -7.556582032635263E-011
  1.690000000000000E-002   -6.483553942397810E-011
  1.700000000000000E-002   -4.945974277739384E-011
  1.710000000000000E-002   -2.994345331947190E-011
  1.720000000000000E-002   -7.072705592051516E-012
  1.730000000000000E-002    1.810980435622254E-011
  1.740000000000000E-002    4.434598347641139E-011
  1.750000000000000E-002    7.021935223619202E-011
  1.760000000000000E-002    9.422552777560226E-011
  1.770000000000000E-002    1.148529599392513E-010
  1.780000000000000E-002    1.306698066947906E-010
  1.790000000000000E-002    1.404123663795543E-010
  1.800000000000000E-002    1.430698697611221E-010
  1.810000000000000E-002    1.379604104713453E-010
  1.820000000000000E-002    1.247930380202963E-010
  1.830000000000000E-002    1.037113971447006E-010
  1.840000000000000E-002    7.531512614372215E-011
  1.850000000000000E-002    4.065646179409329E-011
  1.860000000000000E-002    1.210501227836207E-012
  1.870000000000000E-002   -4.118069347382129E-011