 -4.000000000000000E-002    0.000000000000000E+000
 -3.990000000000000E-002    0.000000000000000E+000
 -3.980000000000000E-002    0.000000000000000E+000
 -3.970000000000000E-002    0.000000000000000E+000
 -3.960000000000000E-002    0.000000000000000E+000
 -3.950000000000000E-002    3.124171483345104E-021
 -3.940000000000000E-002    3.623271038955053E-020
 -3.930000000000000E-002    2.283856061990765E-019
 -3.920000000000000E-002    1.033341498334062E-018
 -3.910000000000000E-002    3.745458114452534E-018
 -3.900000000000000E-002    1.152228744243081E-017
 -3.890000000000000E-002    3.115700437170044E-017
 -3.880000000000000E-002    7.578771873072002E-017
 -3.870000000000000E-002    1.685300412439865E-016
 -3.860000000000000E-002    3.466251286890578E-016
 -3.850000000000000E-002    6.650926728828138E-016
 -3.840000000000000E-002    1.198107963096623E-015
 -3.830000000000000E-002    2.035498532454592E-015
 -3.820000000000000E-002    3.271076792624753E-015
 -3.810000000000000E-002    4.979240538691454E-015
 -3.800000000000000E-002    7.176689896756436E-015
 -3.790000000000000E-002    9.767491988403511E-015
 -3.780000000000000E-002    1.247227711875658E-014
 -3.770000000000000E-002    1.474614938471777E-014
 -3.760000000000000E-002    1.569476998986870E-014
 -3.750000000000000E-002    1.400367020222341E-014
 -3.740000000000000E-002    7.901525181826831E-015
 -3.730000000000000E-002   -4.817051896442010E-015
 -3.720000000000000E-002   -2.668075142194869E-014
 -3.710000000000000E-002   -6.031476541220746E-014
 -3.700000000000000E-002   -1.080746750367515E-013
 -3.690000000000000E-002   -1.715283323783543E-013
 -3.680000000000000E-002   -2.507899003385892E-013
 -3.670000000000000E-002   -3.437339883688623E-013
 -3.660000000000000E-002   -4.451473723361048E-013
 -3.650000000000000E-002   -5.459095520309595E-013
 -3.640000000000000E-002   -6.323279897999543E-013
 -3.630000000000000E-002   -6.857851833980416E-013
 -3.620000000000000E-002   -6.828755446497820E-013
 -3.610000000000000E-002   -5.962143115181544E-013
 -3.600000000000000E-002   -3.960829790005369E-013
 -3.590000000000000E-002   -5.302436907128892E-014
 -3.580000000000000E-002    4.585814976553195E-013
 -3.570000000000000E-002    1.156046117818375E-012
 -3.560000000000000E-002    2.043240486436026E-012
 -3.550000000000000E-002    3.105197515130006E-012
 -3.540000000000000E-002    4.303011348208230E-012
 -3.530000000000000E-002    5.569738449817149E-012
 -3.520000000000000E-002    6.808093884924411E-012
 -3.510000000000000E-002    7.890750827863400E-012
 -3.500000000000000E-002    8.663968395642399E-012
 -3.490000000000000E-002    8.955059379984073E-012
 -3.480000000000000E-002    8.583887910650356E-012
 -3.470000000000000E-002    7.378155777440650E-012
 -3.460000000000000E-002    5.191733294847351E-012
 -3.450000000000000E-002    1.924764786724390E-012
 -3.440000000000000E-002   -2.456197209388661E-012
 -3.430000000000000E-002   -7.900131405041759E-012
 -3.420000000000000E-002   -1.425783044928751E-011
 -3.410000000000000E-002   -2.127469504064636E-011
 -3.400000000000000E-002   -2.859186677927155E-011
 -3.390000000000000E-002   -3.575682428998582E-011
 -3.380000000000000E-002   -4.224372294827965E-011
 -3.370000000000000E-002   -4.748266940920393E-011
 -3.360000000000000E-002   -5.089607329408710E-011
 -3.350000000000000E-002   -5.193922807988113E-011
 -3.340000000000000E-002   -5.014160733042573E-011
 -3.330000000000000E-002   -4.514503811276001E-011
 -3.320000000000000E-002   -3.673509952654110E-011
 -3.310000000000000E-002   -2.486282809467722E-011
 -3.300000000000000E-002   -9.654949468665529E-012
 -3.290000000000000E-002    8.587636680077698E-012
 -3.280000000000000E-002    2.940179642762319E-011
 -3.270000000000000E-002    5.218166292438985E-011
 -3.260000000000000E-002    7.620184960520805E-011
 -3.250000000000000E-002    1.006399450411232E-010
 -3.240000000000000E-002    1.245944709356340E-010
 -3.230000000000000E-002    1.470954907073790E-010
 -3.220000000000000E-002    1.671072907419475E-010
 -3.210000000000000E-002    1.835250567417869E-010
 -3.200000000000000E-002    1.951702719018800E-010
 -3.190000000000000E-002    2.007919716193809E-010
 -3.180000000000000E-002    1.990825593810412E-010
 -3.170000000000000E-002    1.887172862246085E-010
 -3.160000000000000E-002    1.684249147727696E-010
 -3.150000000000000E-002    1.370940204479853E-010
 -3.140000000000000E-002    9.391429243732133E-011
 -3.130000000000000E-002    3.854609128196433E-011
 -3.120000000000000E-002   -2.869556420414340E-011
 -3.110000000000000E-002   -1.066626165050209E-010
 -3.100000000000000E-002   -1.932267071356779E-010
 -3.090000000000000E-002   -2.851908686232632E-010
 -3.080000000000000E-002   -3.782877458631986E-010
 -3.070000000000000E-002   -4.672871807281571E-010
 -3.060000000000000E-002   -5.462268324838289E-010
 -3.050000000000000E-002   -6.087685665672341E-010
 -3.040000000000000E-002   -6.486669556783165E-010
 -3.030000000000000E-002   -6.603208045070718E-010
 -3.020000000000000E-002   -6.393640473540321E-010
 -3.010000000000000E-002   -5.832381688888492E-010
 -3.000000000000000E-002   -4.916819766616245E-010
 -2.990000000000000E-002   -3.670728740914574E-010
 -2.980000000000000E-002   -2.145600387664675E-010
 -2.970000000000000E-002   -4.194473417289276E-011
 -2.960000000000000E-002    1.407163064947114E-010
 -2.950000000000000E-002    3.217800423164217E-010
 -2.940000000000000E-002    4.889254208008194E-010
 -2.930000000000000E-002    6.302356101473969E-010
 -2.920000000000000E-002    7.353631469379952E-010
 -2.910000000000000E-002    7.966668427445970E-010
 -2.900000000000000E-002    8.101981322060685E-010
 -2.890000000000000E-002    7.764186139832995E-010
 -2.880000000000000E-002    7.005444483414371E-010
 -2.870000000000000E-002    5.924414442087541E-010
 -2.860000000000000E-002    4.660342963676464E-010
 -2.850000000000000E-002    3.382390514795403E-010
 -2.840000000000000E-002    2.274786486057245E-010
 -2.830000000000000E-002    1.518899662518945E-010
 -2.820000000000000E-002    1.273706212363841E-010
 -2.810000000000000E-002    1.656451002639863E-010
 -2.800000000000000E-002    2.725439616729164E-010
 -2.790000000000000E-002    4.466843810217033E-010
 -2.780000000000000E-002    6.787183286507860E-010
 -2.770000000000000E-002    9.512713493317845E-010
 -2.760000000000000E-002    1.239640871400619E-009
 -2.750000000000000E-002    1.513253253848438E-009
 -2.740000000000000E-002    1.737806651427640E-009
 -2.730000000000000E-002    1.877959437978358E-009
 -2.720000000000000E-002    1.900357880848559E-009
 -2.710000000000000E-002    1.776756750696974E-009
 -2.700000000000000E-002    1.486955299977644E-009
 -2.690000000000000E-002    1.021274705443597E-009
 -2.680000000000000E-002    3.823232355696148E-010
 -2.670000000000000E-002   -4.141504451659191E-010
 -2.660000000000000E-002   -1.339448988245393E-009
 -2.650000000000000E-002   -2.353203604459056E-009
 -2.640000000000000E-002   -3.405685563786765E-009
 -2.630000000000000E-002   -4.440996717832034E-009
 -2.620000000000000E-002   -5.400901835514225E-009
 -2.610000000000000E-002   -6.228986722860262E-009
 -2.600000000000000E-002   -6.874783848126824E-009
 -2.590000000000000E-002   -7.297491458291559E-009
 -2.580000000000000E-002   -7.468929529030355E-009
 -2.570000000000000E-002   -7.375436480488027E-009
 -2.560000000000000E-002   -7.018492360117266E-009
 -2.550000000000000E-002   -6.413980054478234E-009
 -2.540000000000000E-002   -5.590117803073966E-009
 -2.530000000000000E-002   -4.584239430736832E-009
 -2.520000000000000E-002   -3.438733323624466E-009
 -2.510000000000000E-002   -2.196554502036985E-009
 -2.500000000000000E-002   -8.967919222490806E-010
 -2.490000000000000E-002    4.291842469451912E-010
 -2.480000000000000E-002    1.760514122257282E-009
 -2.470000000000000E-002    3.088161578827573E-009
 -2.460000000000000E-002    4.414480362587731E-009
 -2.450000000000000E-002    5.750926597648609E-009
 -2.440000000000000E-002    7.114015002897560E-009
 -2.430000000000000E-002    8.519834732181086E-009
 -2.420000000000000E-002    9.977630389669660E-009
 -2.410000000000000E-002    1.148311696991066E-008
 -2.400000000000000E-002    1.301230536485577E-008
 -2.390000000000000E-002    1.451664110450486E-008
 -2.380000000000000E-002    1.592022364433814E-008
 -2.370000000000000E-002    1.711971196430074E-008
 -2.360000000000000E-002    1.798734656653625E-008
 -2.350000000000000E-002    1.837721148887294E-008
 -2.340000000000000E-002    1.813457821682802E-008
 -2.330000000000000E-002    1.710785293560723E-008
 -2.320000000000000E-002    1.516235983346439E-008
 -2.310000000000000E-002    1.219498922251183E-008
 -2.300000000000000E-002    8.148592642340239E-009
 -2.290000000000000E-002    3.024978184641889E-009
 -2.280000000000000E-002   -3.104514237018204E-009
 -2.270000000000000E-002   -1.009172475267451E-008
 -2.260000000000000E-002   -1.770817439391972E-008
 -2.250000000000000E-002   -2.564555749418222E-008
 -2.240000000000000E-002   -3.351996848671626E-008
 -2.230000000000000E-002   -4.087930011342041E-008
 -2.220000000000000E-002   -4.721287867238454E-008
 -2.210000000000000E-002   -5.196219720745268E-008
 -2.200000000000000E-002   -5.453159566991127E-008
 -2.190000000000000E-002   -5.429768023747808E-008
 -2.180000000000000E-002   -5.061655049911017E-008
 -2.170000000000000E-002   -4.282820574796103E-008
 -2.160000000000000E-002   -3.025791059393910E-008
 -2.150000000000000E-002   -1.221472244569794E-008
 -2.140000000000000E-002    1.201220632394822E-008
 -2.130000000000000E-002    4.315854575268483E-008
 -2.120000000000000E-002    8.198977683837850E-008
 -2.110000000000000E-002    1.293048620229448E-007
 -2.100000000000000E-002    1.859374669556626E-007
 -2.090000000000000E-002    2.527540620787636E-007
 -2.080000000000000E-002    3.306477471269776E-007
 -2.070000000000000E-002    4.205286570498331E-007
 -2.060000000000000E-002    5.233108515255606E-007
 -2.050000000000000E-002    6.398966924883007E-007
 -2.040000000000000E-002    7.711607207020668E-007
 -2.030000000000000E-002    9.179339901785538E-007
 -2.020000000000000E-002    1.080990665496758E-006
 -2.010000000000000E-002    1.261039043659448E-006
 -2.000000000000000E-002    1.458717494687531E-006
 -1.990000000000000E-002    1.674595926878574E-006
 -1.980000000000000E-002    1.909183323252384E-006
 -1.970000000000000E-002    2.162940060798188E-006
 -1.960000000000000E-002    2.436293960248499E-006
 -1.950000000000000E-002    2.729658805269715E-006
 -1.940000000000000E-002    3.043451724773978E-006
 -1.930000000000000E-002    3.378110134136585E-006
 -1.920000000000000E-002    3.734104150872798E-006
 -1.910000000000000E-002    4.111943373626187E-006
 -1.900000000000000E-002    4.512180272712147E-006
 -1.890000000000000E-002    4.935406555432060E-006
 -1.880000000000000E-002    5.382247084866094E-006
 -1.870000000000000E-002    5.853351271535821E-006
 -1.860000000000000E-002    6.349385235112259E-006
 -1.850000000000000E-002    6.871028235035249E-006
 -1.840000000000000E-002    7.418973010962233E-006
 -1.830000000000000E-002    7.993936452238434E-006
 -1.820000000000000E-002    8.596679276299424E-006
 -1.810000000000000E-002    9.228033578035943E-006
 -1.800000000000000E-002    9.888943116694459E-006
 -1.790000000000000E-002    1.058050727555567E-005
 -1.780000000000000E-002    1.130403005912891E-005
 -1.770000000000000E-002    1.206106859566255E-005
 -1.760000000000000E-002    1.285347457639515E-005
 -1.750000000000000E-002    1.368343089203773E-005
 -1.740000000000000E-002    1.455347053001433E-005
 -1.730000000000000E-002    1.546647933300157E-005
 -1.720000000000000E-002    1.642568367515436E-005
 -1.710000000000000E-002    1.743461923635726E-005
 -1.700000000000000E-002    1.849708106899073E-005
 -1.690000000000000E-002    1.961706886869290E-005
 -1.680000000000000E-002    2.079871688118666E-005
 -1.670000000000000E-002    2.204623258194512E-005
 -1.660000000000000E-002    2.336383741971366E-005
 -1.650000000000000E-002    2.475572051030515E-005
 -1.640000000000000E-002    2.622601435678250E-005
 -1.630000000000000E-002    2.777879062469088E-005
 -1.620000000000000E-002    2.941808662364879E-005
 -1.610000000000000E-002    3.114794930666132E-005
 -1.600000000000000E-002    3.297250677241426E-005
 -1.590000000000000E-002    3.489606162518886E-005
 -1.580000000000000E-002    3.692317629688539E-005
 -1.570000000000000E-002    3.905878556681809E-005
 -1.560000000000000E-002    4.130827242643024E-005
 -1.550000000000000E-002    4.367756072823203E-005
 -1.540000000000000E-002    4.617314378790639E-005
 -1.530000000000000E-002    4.880212147736573E-005
 -1.520000000000000E-002    5.157218585208752E-005
 -1.510000000000000E-002    5.449156110391165E-005
 -1.500000000000000E-002    5.756894294443323E-005
 -1.490000000000000E-002    6.081339386689239E-005
 -1.480000000000000E-002    6.423422865111751E-005
 -1.470000000000000E-002    6.784090135049857E-005
 -1.460000000000000E-002    7.164288878363822E-005
 -1.450000000000000E-002    7.564960979524904E-005
 -1.440000000000000E-002    7.987036022414632E-005
 -1.430000000000000E-002    8.431430003014131E-005
 -1.420000000000000E-002    8.899046458732576E-005
 -1.410000000000000E-002    9.390783384571557E-005
 -1.400000000000000E-002    9.907543960297723E-005
 -1.390000000000000E-002    1.045025165982978E-004
 -1.380000000000000E-002    1.101986670860165E-004
 -1.370000000000000E-002    1.161740285720863E-004
 -1.360000000000000E-002    1.224394500032793E-004
 -1.350000000000000E-002    1.290066745788028E-004
 -1.340000000000000E-002    1.358884392372051E-004
 -1.330000000000000E-002    1.430985878199318E-004
 -1.320000000000000E-002    1.506520941691578E-004
 -1.310000000000000E-002    1.585650587122768E-004
 -1.300000000000000E-002    1.668546351910667E-004
 -1.290000000000000E-002    1.755389411601000E-004
 -1.280000000000000E-002    1.846369084814389E-004
 -1.270000000000000E-002    1.941680931804846E-004
 -1.260000000000000E-002    2.041525653465442E-004
 -1.250000000000000E-002    2.146107054840925E-004
 -1.240000000000000E-002    2.255630919377584E-004
 -1.230000000000000E-002    2.370303948314568E-004
 -1.220000000000000E-002    2.490333576533892E-004
 -1.210000000000000E-002    2.615928085569280E-004
 -1.200000000000000E-002    2.747297487827329E-004
 -1.190000000000000E-002    2.884654281727384E-004
 -1.180000000000000E-002    3.028215562151529E-004
 -1.170000000000000E-002    3.178205338526455E-004
 -1.160000000000000E-002    3.334855870947287E-004
 -1.150000000000000E-002    3.498410202042483E-004
 -1.140000000000000E-002    3.669124436530838E-004
 -1.130000000000000E-002    3.847268353044023E-004
 -1.120000000000000E-002    4.033127359493414E-004
 -1.110000000000000E-002    4.227002968670888E-004
 -1.100000000000000E-002    4.429212374191345E-004
 -1.090000000000000E-002    4.640088343787965E-004
 -1.080000000000000E-002    4.859977616368312E-004
 -1.070000000000000E-002    5.089239730026381E-004
 -1.060000000000000E-002    5.328246391318511E-004
 -1.050000000000000E-002    5.577377814069029E-004
 -1.040000000000000E-002    5.837022822793314E-004
 -1.030000000000000E-002    6.107576290443166E-004
 -1.020000000000000E-002    6.389438838413670E-004
 -1.010000000000000E-002    6.683015859179759E-004
 -1.000000000000000E-002    6.988716288770354E-004
 -9.899999999999999E-003    7.306953965480810E-004
 -9.800000000000000E-003    7.638148040497524E-004
 -9.699999999999999E-003    7.982723289250718E-004
 -9.599999999999999E-003    8.341111523737605E-004
 -9.500000000000000E-003    8.713752428041866E-004
 -9.399999999999999E-003    9.101094191100095E-004
 -9.299999999999999E-003    9.503595447762341E-004
 -9.200000000000000E-003    9.921726148071984E-004
 -9.099999999999999E-003    1.035596579917576E-003
 -8.999999999999999E-003    1.080680594199670E-003
 -8.900000000000000E-003    1.127475017003523E-003
 -8.799999999999999E-003    1.176031066938196E-003
 -8.699999999999999E-003    1.226401158898260E-003
 -8.600000000000000E-003    1.278638620657277E-003
 -8.499999999999999E-003    1.332797511864831E-003
 -8.399999999999999E-003    1.388932880885414E-003
 -8.300000000000000E-003    1.447100382742019E-003
 -8.199999999999999E-003    1.507356311828851E-003
 -8.100000000000000E-003    1.569757515578431E-003
 -8.000000000000000E-003    1.634361495802302E-003
 -7.899999999999999E-003    1.701226096014368E-003
 -7.800000000000000E-003    1.770409688165273E-003
 -7.699999999999999E-003    1.841970808373751E-003
 -7.599999999999999E-003    1.915968414422681E-003
 -7.499999999999999E-003    1.992461657897824E-003
 -7.399999999999999E-003    2.071509636840321E-003
 -7.299999999999999E-003    2.153171438150263E-003
 -7.199999999999999E-003    2.237505763452918E-003
 -7.100000000000000E-003    2.324571051921448E-003
 -6.999999999999999E-003    2.414425155514111E-003
 -6.899999999999999E-003    2.507125453772367E-003
 -6.800000000000000E-003    2.602728112803575E-003
 -6.699999999999999E-003    2.701288586801861E-003
 -6.599999999999999E-003    2.802861445802646E-003
 -6.499999999999999E-003    2.907499969901282E-003
 -6.399999999999999E-003    3.015256232049708E-003
 -6.299999999999999E-003    3.126181341755196E-003
 -6.199999999999999E-003    3.240325285872538E-003
 -6.100000000000000E-003    3.357737048826036E-003
 -5.999999999999999E-003    3.478464206815126E-003
 -5.899999999999999E-003    3.602553424655184E-003
 -5.800000000000000E-003    3.730050018850396E-003
 -5.699999999999999E-003    3.860997654461392E-003
 -5.599999999999999E-003    3.995438992069279E-003
 -5.499999999999999E-003    4.133414149601698E-003
 -5.399999999999999E-003    4.274961380487127E-003
 -5.299999999999999E-003    4.420116158118199E-003
 -5.199999999999999E-003    4.568911269107727E-003
 -5.099999999999999E-003    4.721375577495503E-003
 -4.999999999999999E-003    4.877533829561394E-003
 -4.899999999999999E-003    5.037406661237640E-003
 -4.799999999999999E-003    5.201009412608540E-003
 -4.699999999999999E-003    5.368352098417892E-003
 -4.599999999999999E-003    5.539438931093194E-003
 -4.499999999999999E-003    5.714267961400737E-003
 -4.399999999999999E-003    5.892831394570754E-003
 -4.299999999999999E-003    6.075113890817872E-003
 -4.199999999999999E-003    6.261094203492443E-003
 -4.099999999999999E-003    6.450744614061795E-003
 -3.999999999999999E-003    6.644029866272255E-003
 -3.899999999999999E-003    6.840907964975681E-003
 -3.799999999999999E-003    7.041330278808175E-003
 -3.699999999999999E-003    7.245240733877658E-003
 -3.599999999999999E-003    7.452576268120162E-003
 -3.499999999999999E-003    7.663265478702791E-003
 -3.399999999999999E-003    7.877229446351951E-003
 -3.299999999999999E-003    8.094380713729855E-003
 -3.199999999999999E-003    8.314622057546916E-003
 -3.099999999999999E-003    8.537846599663607E-003
 -2.999999999999999E-003    8.763938070718326E-003
 -2.899999999999999E-003    8.992767687027000E-003
 -2.799999999999999E-003    9.224195868833393E-003
 -2.699999999999999E-003    9.458069085893089E-003
 -2.599999999999999E-003    9.694221114608494E-003
 -2.499999999999999E-003    9.932471299948190E-003
 -2.399999999999999E-003    1.017262532501554E-002
 -2.299999999999999E-003    1.041447332370657E-002
 -2.199999999999999E-003    1.065778898818939E-002
 -2.099999999999999E-003    1.090233035764503E-002
 -1.999999999999999E-003    1.114783941549229E-002
 -1.899999999999999E-003    1.139404085789093E-002
 -1.799999999999999E-003    1.164064352024613E-002
 -1.699999999999999E-003    1.188733743230012E-002
 -1.599999999999999E-003    1.213379491181510E-002
 -1.499999999999999E-003    1.237967089506530E-002
 -1.399999999999999E-003    1.262460117634902E-002
 -1.299999999999999E-003    1.286820304990989E-002
 -1.199999999999999E-003    1.311007357341822E-002
 -1.099999999999999E-003    1.334979029982676E-002
 -9.999999999999989E-004    1.358690983950639E-002
 -8.999999999999990E-004    1.382096801876419E-002
 -7.999999999999990E-004    1.405147872812646E-002
 -6.999999999999989E-004    1.427793278460613E-002
 -5.999999999999990E-004    1.449979865888717E-002
 -4.999999999999989E-004    1.471652040341573E-002
 -3.999999999999989E-004    1.492751755416230E-002
 -2.999999999999989E-004    1.513218678183485E-002
 -1.999999999999989E-004    1.532989712417385E-002
 -9.999999999999892E-005    1.551999358020101E-002
  1.084202172485504E-018    1.570179360006242E-002
  1.000000000000011E-004    1.587458834180735E-002
  2.000000000000011E-004    1.603764246454544E-002
  3.000000000000011E-004    1.619019109944959E-002
  4.000000000000011E-004    1.633144181757475E-002
  5.000000000000011E-004    1.646057514059286E-002
  6.000000000000011E-004    1.657674021103545E-002
  7.000000000000011E-004    1.667905651517887E-002
  8.000000000000011E-004    1.676661485944253E-002
  9.000000000000012E-004    1.683847573278092E-002
  1.000000000000001E-003    1.689366627970669E-002
  1.100000000000001E-003    1.693118437864762E-002
  1.200000000000001E-003    1.694999662854475E-002
  1.300000000000001E-003    1.694903577507927E-002
  1.400000000000001E-003    1.692720511186390E-002
  1.500000000000001E-003    1.688337636650090E-002
  1.600000000000001E-003    1.681638793367862E-002
  1.700000000000001E-003    1.672504503403031E-002
  1.800000000000001E-003    1.660812509078515E-002
  1.900000000000001E-003    1.646437339613369E-002
  2.000000000000001E-003    1.629250174397944E-002
  2.100000000000001E-003    1.609119128944749E-002
  2.200000000000001E-003    1.585909516283535E-002
  2.300000000000001E-003    1.559483271020558E-002
  2.400000000000001E-003    1.529699210981989E-002
  2.500000000000001E-003    1.496413414418952E-002
  2.600000000000001E-003    1.459478522904027E-002
  2.700000000000001E-003    1.418744175762755E-002
  2.800000000000001E-003    1.374056960409273E-002
  2.900000000000001E-003    1.325260374426295E-002
  3.000000000000001E-003    1.272194891124362E-002
  3.100000000000001E-003    1.214697864205252E-002
  3.200000000000001E-003    1.152603761656271E-002
  3.300000000000001E-003    1.085743985557743E-002
  3.400000000000001E-003    1.013947172158170E-002
  3.500000000000001E-003    9.370390271199271E-003
  3.600000000000001E-003    8.548428595189969E-003
  3.700000000000001E-003    7.671790832059822E-003
  3.800000000000001E-003    6.738659959577798E-003
  3.900000000000001E-003    5.747196518510351E-003
  4.000000000000001E-003    4.695536639702058E-003
  4.100000000000001E-003    3.581799860617484E-003
  4.200000000000001E-003    2.404085592680790E-003
  4.300000000000001E-003    1.160477185246481E-003
  4.400000000000001E-003   -1.509559894862547E-004
  4.500000000000001E-003   -1.532161157354818E-003
  4.600000000000002E-003   -2.985095813843431E-003
  4.700000000000001E-003   -4.511730624994725E-003
  4.800000000000001E-003   -6.114042964156812E-003
  4.900000000000002E-003   -7.794022240361886E-003
  5.000000000000001E-003   -9.553663524366837E-003
  5.100000000000001E-003   -1.139496867919715E-002
  5.200000000000001E-003   -1.331994095341158E-002
  5.300000000000002E-003   -1.533058934968472E-002
  5.400000000000001E-003   -1.742892123280396E-002
  5.500000000000001E-003   -1.961694118205503E-002
  5.600000000000002E-003   -2.189665301333679E-002
  5.700000000000001E-003   -2.427005079399506E-002
  5.800000000000001E-003   -2.673911945720972E-002
  5.900000000000002E-003   -2.930583636667974E-002
  6.000000000000001E-003   -3.197215606582210E-002
  6.100000000000001E-003   -3.474002154262035E-002
  6.200000000000002E-003   -3.761135265208825E-002
  6.300000000000002E-003   -4.058804400236338E-002
  6.400000000000001E-003   -4.367196867772597E-002
  6.500000000000001E-003   -4.686496203490165E-002
  6.600000000000002E-003   -5.016883008407961E-002
  6.700000000000001E-003   -5.358534969983225E-002
  6.800000000000001E-003   -5.711625091780959E-002
  6.900000000000002E-003   -6.076322820992809E-002
  7.000000000000001E-003   -6.452792576900324E-002
  7.100000000000001E-003   -6.841194875965614E-002
  7.200000000000002E-003   -7.241684347850284E-002
  7.300000000000002E-003   -7.654411275611853E-002
  7.400000000000001E-003   -8.079519773175228E-002
  7.500000000000001E-003   -8.517147560376062E-002
  7.600000000000002E-003   -8.967425933064267E-002
  7.700000000000001E-003   -9.430479850910403E-002
  7.800000000000001E-003   -9.906426881731877E-002
  7.900000000000001E-003   -0.103953778088873     
  8.000000000000002E-003   -0.108974343927563     
  8.100000000000001E-003   -0.114126910371011     
  8.200000000000001E-003   -0.119412329753123     
  8.300000000000002E-003   -0.124831358937545     
  8.400000000000001E-003   -0.130384667512974     
  8.500000000000002E-003   -0.136072828583196     
  8.600000000000002E-003   -0.141896312410679     
  8.700000000000001E-003   -0.147855481652997     
  8.800000000000002E-003   -0.153950600849441     
  8.900000000000002E-003   -0.160181798456235     
  9.000000000000001E-003   -0.166549119701298     
  9.100000000000002E-003   -0.173052460396713     
  9.200000000000002E-003   -0.179691623524427     
  9.300000000000001E-003   -0.186466270718031     
  9.400000000000002E-003   -0.193375933724138     
  9.500000000000001E-003   -0.200420016159203     
  9.600000000000001E-003   -0.207597771690317     
  9.700000000000002E-003   -0.214908341562364     
  9.800000000000001E-003   -0.222350711604982     
  9.900000000000001E-003   -0.229923701099792     
  1.000000000000000E-002   -0.237625992400045     
  1.010000000000000E-002   -0.245456122961762     
  1.020000000000000E-002   -0.253412477668131     
  1.030000000000000E-002   -0.261493257007450     
  1.040000000000000E-002   -0.269696507584510     
  1.050000000000000E-002   -0.278020119524361     
  1.060000000000000E-002   -0.286461808615044     
  1.070000000000000E-002   -0.295019111897689     
  1.080000000000000E-002   -0.303689411166622     
  1.090000000000000E-002   -0.312469910758004     
  1.100000000000000E-002   -0.321357637737139     
  1.110000000000000E-002   -0.330349432802732     
  1.120000000000000E-002   -0.339441965071014     
  1.130000000000000E-002   -0.348631712696065     
  1.140000000000000E-002   -0.357915005446824     
  1.150000000000000E-002   -0.367287963306509     
  1.160000000000000E-002   -0.376746490983421     
  1.170000000000000E-002   -0.386286351401584     
  1.180000000000000E-002   -0.395903117149059     
  1.190000000000000E-002   -0.405592173409169     
  1.200000000000000E-002   -0.415348671277706     
  1.210000000000000E-002   -0.425167615636585     
  1.220000000000000E-002   -0.435043824042473     
  1.230000000000000E-002   -0.444971914621601     
  1.240000000000000E-002   -0.454946330524810     
  1.250000000000000E-002   -0.464961293115127     
  1.260000000000000E-002   -0.475010863286546     
  1.270000000000000E-002   -0.485088912104692     
  1.280000000000000E-002   -0.495189131215573     
  1.290000000000000E-002   -0.505305024099943     
  1.300000000000000E-002   -0.515429917606814     
  1.310000000000000E-002   -0.525556954025851     
  1.320000000000000E-002   -0.535679079361067     
  1.330000000000000E-002   -0.545789098638707     
  1.340000000000000E-002   -0.555879664023656     
  1.350000000000000E-002   -0.565943223591287     
  1.360000000000000E-002   -0.575972088582639     
  1.370000000000000E-002   -0.585958332406912     
  1.380000000000000E-002   -0.595894014256216     
  1.390000000000000E-002   -0.605770894612723     
  1.400000000000000E-002   -0.615580679427494     
  1.410000000000000E-002   -0.625314921687652     
  1.420000000000000E-002   -0.634965019452287     
  1.430000000000000E-002   -0.644522162201461     
  1.440000000000000E-002   -0.653977555613196     
  1.450000000000000E-002   -0.663322155877818     
  1.460000000000000E-002   -0.672546868881948     
  1.470000000000000E-002   -0.681642483038521     
  1.480000000000000E-002   -0.690599652042088     
  1.490000000000000E-002   -0.699408968414274     
  1.500000000000000E-002   -0.708060931370893     
  1.510000000000000E-002   -0.716545942153490     
  1.520000000000000E-002   -0.724854302135692     
  1.530000000000000E-002   -0.732976269146950     
  1.540000000000000E-002   -0.740902081171964     
  1.550000000000000E-002   -0.748621865195264     
  1.560000000000000E-002   -0.756125702964213     
  1.570000000000000E-002   -0.763403682436947     
  1.580000000000000E-002   -0.770445853309818     
  1.590000000000000E-002   -0.777242245675272     
  1.600000000000000E-002   -0.783782811614037     
  1.610000000000000E-002   -0.790057637126974     
  1.620000000000000E-002   -0.796056722771311     
  1.630000000000000E-002   -0.801770075225996     
  1.640000000000000E-002   -0.807187779054731     
  1.650000000000000E-002   -0.812299945493174     
  1.660000000000000E-002   -0.817096751016309     
  1.670000000000000E-002   -0.821568375033894     
  1.680000000000000E-002   -0.825705129344820     
  1.690000000000000E-002   -0.829497404418609     
  1.700000000000000E-002   -0.832935580640402     
  1.710000000000000E-002   -0.836010279192444     
  1.720000000000000E-002   -0.838712189183323     
  1.730000000000000E-002   -0.841032085974681     
  1.740000000000000E-002   -0.842960896552603     
  1.750000000000000E-002   -0.844489699603664     
  1.760000000000000E-002   -0.845609732237395     
  1.770000000000000E-002   -0.846312395466313     
  1.780000000000000E-002   -0.846589226815845     
  1.790000000000000E-002   -0.846432028889143     
  1.800000000000000E-002   -0.845832805392676     
  1.810000000000000E-002   -0.844783680614509     
  1.820000000000000E-002   -0.843277063788755     
  1.830000000000000E-002   -0.841305597606104     
  1.840000000000000E-002   -0.838862174216097     
  1.850000000000000E-002   -0.835939900953815     
  1.860000000000000E-002   -0.832532161059467     
  1.870000000000000E-002   -0.828632623322825     