 -4.000000000000000E-002    0.000000000000000E+000
 -3.990000000000000E-002    0.000000000000000E+000
 -3.980000000000000E-002    0.000000000000000E+000
 -3.970000000000000E-002    0.000000000000000E+000
 -3.960000000000000E-002    0.000000000000000E+000
 -3.950000000000000E-002    0.000000000000000E+000
 -3.940000000000000E-002    2.611687136644861E-027
 -3.930000000000000E-002   -9.141782883577883E-026
 -3.920000000000000E-002   -1.663785923930290E-024
 -3.910000000000000E-002   -1.402082813334623E-023
 -3.900000000000000E-002   -8.025550723933194E-023
 -3.890000000000000E-002   -3.551788529908639E-022
 -3.880000000000000E-002   -1.296127450300496E-021
 -3.870000000000000E-002   -4.048151464777004E-021
 -3.860000000000000E-002   -1.107107000152261E-020
 -3.850000000000000E-002   -2.687156992089275E-020
 -3.840000000000000E-002   -5.821885624385696E-020
 -3.830000000000000E-002   -1.122533086935437E-019
 -3.820000000000000E-002   -1.892933199552589E-019
 -3.810000000000000E-002   -2.649141220616103E-019
 -3.800000000000000E-002   -2.533608622564265E-019
 -3.790000000000000E-002    5.754242597031562E-020
 -3.780000000000000E-002    1.109527490802342E-018
 -3.770000000000000E-002    3.719807168809036E-018
 -3.760000000000000E-002    9.262501531246224E-018
 -3.750000000000000E-002    1.985645201700669E-017
 -3.740000000000000E-002    3.849737731050867E-017
 -3.730000000000000E-002    6.902962588195250E-017
 -3.720000000000000E-002    1.158058191321142E-016
 -3.710000000000000E-002    1.828425042020648E-016
 -3.700000000000000E-002    2.722634048480780E-016
 -3.690000000000000E-002    3.818509426721705E-016
 -3.680000000000000E-002    5.016257958987795E-016
 -3.670000000000000E-002    6.095640084490832E-016
 -3.660000000000000E-002    6.668538071812703E-016
 -3.650000000000000E-002    6.134811066669695E-016
 -3.640000000000000E-002    3.653822574806198E-016
 -3.630000000000000E-002   -1.851546316017986E-016
 -3.620000000000000E-002   -1.163822332274648E-015
 -3.610000000000000E-002   -2.701239344076468E-015
 -3.600000000000000E-002   -4.910664454207406E-015
 -3.590000000000000E-002   -7.855428832416889E-015
 -3.580000000000000E-002   -1.150642603105630E-014
 -3.570000000000000E-002   -1.569201510132290E-014
 -3.560000000000000E-002   -2.004523922561514E-014
 -3.550000000000000E-002   -2.395606490880036E-014
 -3.540000000000000E-002   -2.653909638858288E-014
 -3.530000000000000E-002   -2.662931084606136E-014
 -3.520000000000000E-002   -2.281925241360188E-014
 -3.510000000000000E-002   -1.355018699646881E-014
 -3.500000000000000E-002    2.733585180206907E-015
 -3.490000000000000E-002    2.736399797029334E-014
 -3.480000000000000E-002    6.116741685812036E-014
 -3.470000000000000E-002    1.041378270758125E-013
 -3.460000000000000E-002    1.550930592641526E-013
 -3.450000000000000E-002    2.113539398701844E-013
 -3.440000000000000E-002    2.684960878663345E-013
 -3.430000000000000E-002    3.202300608814322E-013
 -3.420000000000000E-002    3.584657153426386E-013
 -3.410000000000000E-002    3.736097496089752E-013
 -3.400000000000000E-002    3.551300443193224E-013
 -3.390000000000000E-002    2.923973378240589E-013
 -3.380000000000000E-002    1.757853504031764E-013
 -3.370000000000000E-002   -2.024037050478507E-015
 -3.360000000000000E-002   -2.446180110587025E-013
 -3.350000000000000E-002   -5.504317155358081E-013
 -3.340000000000000E-002   -9.114715672457333E-013
 -3.330000000000000E-002   -1.312337466483614E-012
 -3.320000000000000E-002   -1.729696524786320E-012
 -3.310000000000000E-002   -2.132341384961580E-012
 -3.300000000000000E-002   -2.481935037111699E-012
 -3.290000000000000E-002   -2.734494635849871E-012
 -3.280000000000000E-002   -2.842616244520467E-012
 -3.270000000000000E-002   -2.758382676184163E-012
 -3.260000000000000E-002   -2.436844297740461E-012
 -3.250000000000000E-002   -1.839917399698447E-012
 -3.240000000000000E-002   -9.405099482369865E-013
 -3.230000000000000E-002    2.733345179103120E-013
 -3.220000000000000E-002    1.794494980954388E-012
 -3.210000000000000E-002    3.593255210907135E-012
 -3.200000000000000E-002    5.614434436943016E-012
 -3.190000000000000E-002    7.775396226760735E-012
 -3.180000000000000E-002    9.965186872737776E-012
 -3.170000000000000E-002    1.204507129166860E-011
 -3.160000000000000E-002    1.385077864617199E-011
 -3.150000000000000E-002    1.519679502820366E-011
 -3.140000000000000E-002    1.588304371700396E-011
 -3.130000000000000E-002    1.570426557611554E-011
 -3.120000000000000E-002    1.446230886399577E-011
 -3.110000000000000E-002    1.198136340388593E-011
 -3.100000000000000E-002    8.125874740195527E-012
 -3.090000000000000E-002    2.820521998950842E-012
 -3.080000000000000E-002   -3.928826405913030E-012
 -3.070000000000000E-002   -1.201475291472554E-011
 -3.060000000000000E-002   -2.121057150493525E-011
 -3.050000000000000E-002   -3.115767834759169E-011
 -3.040000000000000E-002   -4.136061374131500E-011
 -3.030000000000000E-002   -5.119239899898297E-011
 -3.020000000000000E-002   -5.991238421806392E-011
 -3.010000000000000E-002   -6.669803426566798E-011
 -3.000000000000000E-002   -7.069103840093423E-011
 -2.990000000000000E-002   -7.105665838938661E-011
 -2.980000000000000E-002   -6.705362616311784E-011
 -2.970000000000000E-002   -5.811018153214003E-011
 -2.960000000000000E-002   -4.390034586355025E-011
 -2.950000000000000E-002   -2.441327472297631E-011
 -2.940000000000000E-002   -7.954169163338495E-015
 -2.930000000000000E-002    2.855437543448925E-011
 -2.920000000000000E-002    6.010666381411521E-011
 -2.910000000000000E-002    9.310609922820165E-011
 -2.900000000000000E-002    1.256997163185053E-010
 -2.890000000000000E-002    1.558242403164574E-010
 -2.880000000000000E-002    1.813350632962652E-010
 -2.870000000000000E-002    2.001558806347904E-010
 -2.860000000000000E-002    2.104371071159325E-010
 -2.850000000000000E-002    2.107092862788127E-010
 -2.840000000000000E-002    2.000167772628579E-010
 -2.830000000000000E-002    1.780175666114576E-010
 -2.820000000000000E-002    1.450376894643297E-010
 -2.810000000000000E-002    1.020723388614591E-010
 -2.800000000000000E-002    5.073111450003460E-011
 -2.790000000000000E-002   -6.869305120322505E-012
 -2.780000000000000E-002   -6.825579929096338E-011
 -2.770000000000000E-002   -1.307781915485187E-010
 -2.760000000000000E-002   -1.917985645983515E-010
 -2.750000000000000E-002   -2.488699249215214E-010
 -2.740000000000000E-002   -2.998838263123338E-010
 -2.730000000000000E-002   -3.431696102936982E-010
 -2.720000000000000E-002   -3.775331874587742E-010
 -2.710000000000000E-002   -4.022307219539999E-010
 -2.700000000000000E-002   -4.168810556776653E-010
 -2.690000000000000E-002   -4.213296002759529E-010
 -2.680000000000000E-002   -4.154839542656924E-010
 -2.670000000000000E-002   -3.991475128490649E-010
 -2.660000000000000E-002   -3.718802240145950E-010
 -2.650000000000000E-002   -3.329145827513320E-010
 -2.640000000000000E-002   -2.811505607538700E-010
 -2.630000000000000E-002   -2.152446209673008E-010
 -2.620000000000000E-002   -1.337968253966139E-010
 -2.610000000000000E-002   -3.562703541279817E-011
 -2.600000000000000E-002    7.988259616048326E-011
 -2.590000000000000E-002    2.124132671609028E-010
 -2.580000000000000E-002    3.603472785070231E-010
 -2.570000000000000E-002    5.204666785844191E-010
 -2.560000000000000E-002    6.877610238769654E-010
 -2.550000000000000E-002    8.553863723434421E-010
 -2.540000000000000E-002    1.014805794615831E-009
 -2.530000000000000E-002    1.156125375079294E-009
 -2.520000000000000E-002    1.268619998398263E-009
 -2.510000000000000E-002    1.341422748572947E-009
 -2.500000000000000E-002    1.364331552231658E-009
 -2.490000000000000E-002    1.328671169145945E-009
 -2.480000000000000E-002    1.228136417807609E-009
 -2.470000000000000E-002    1.059539221732233E-009
 -2.460000000000000E-002    8.233853636345664E-010
 -2.450000000000000E-002    5.242171598950877E-010
 -2.440000000000000E-002    1.706767479446711E-010
 -2.430000000000000E-002   -2.247314753852159E-010
 -2.420000000000000E-002   -6.461759740940943E-010
 -2.410000000000000E-002   -1.075299118460428E-009
 -2.400000000000000E-002   -1.492228615136903E-009
 -2.390000000000000E-002   -1.876724371720403E-009
 -2.380000000000000E-002   -2.209372747708423E-009
 -2.370000000000000E-002   -2.472734252062604E-009
 -2.360000000000000E-002   -2.652356502219721E-009
 -2.350000000000000E-002   -2.737576746088688E-009
 -2.340000000000000E-002   -2.722056522547806E-009
 -2.330000000000000E-002   -2.604016894300847E-009
 -2.320000000000000E-002   -2.386169797235892E-009
 -2.310000000000000E-002   -2.075369976574710E-009
 -2.300000000000000E-002   -1.682033353202893E-009
 -2.290000000000000E-002   -1.219391020728305E-009
 -2.280000000000000E-002   -7.026559779777099E-010
 -2.270000000000000E-002   -1.481855125136432E-010
 -2.260000000000000E-002    4.272829848807109E-010
 -2.250000000000000E-002    1.007258994963340E-009
 -2.240000000000000E-002    1.575946047554733E-009
 -2.230000000000000E-002    2.118490789615379E-009
 -2.220000000000000E-002    2.621039615587895E-009
 -2.210000000000000E-002    3.070641882560680E-009
 -2.200000000000000E-002    3.455053824176446E-009
 -2.190000000000000E-002    3.762518872401326E-009
 -2.180000000000000E-002    3.981606688550617E-009
 -2.170000000000000E-002    4.101190496093518E-009
 -2.160000000000000E-002    4.110633306638795E-009
 -2.150000000000000E-002    4.000226035956838E-009
 -2.140000000000000E-002    3.761898438304719E-009
 -2.130000000000000E-002    3.390180034271224E-009
 -2.120000000000000E-002    2.883349752042950E-009
 -2.110000000000000E-002    2.244680129036972E-009
 -2.100000000000000E-002    1.483642244874068E-009
 -2.090000000000000E-002    6.169169413865078E-010
 -2.080000000000000E-002   -3.309510642464476E-010
 -2.070000000000000E-002   -1.327415390929468E-009
 -2.060000000000000E-002   -2.332439825164909E-009
 -2.050000000000000E-002   -3.299750544287552E-009
 -2.040000000000000E-002   -4.178861784228528E-009
 -2.030000000000000E-002   -4.917830279178708E-009
 -2.020000000000000E-002   -5.466624975875815E-009
 -2.010000000000000E-002   -5.780906706315736E-009
 -2.000000000000000E-002   -5.825955163189192E-009
 -1.990000000000000E-002   -5.580413510180330E-009
 -1.980000000000000E-002   -5.039504841126915E-009
 -1.970000000000000E-002   -4.217366902073486E-009
 -1.960000000000000E-002   -3.148191671362625E-009
 -1.950000000000000E-002   -1.885931361144522E-009
 -1.940000000000000E-002   -5.024309789962371E-010
 -1.930000000000000E-002    9.160185864702055E-010
 -1.920000000000000E-002    2.273571471479708E-009
 -1.910000000000000E-002    3.470879279926630E-009
 -1.900000000000000E-002    4.411894702736176E-009
 -1.890000000000000E-002    5.010915341582410E-009
 -1.880000000000000E-002    5.199285460368860E-009
 -1.870000000000000E-002    4.931184788551603E-009
 -1.860000000000000E-002    4.187967343959945E-009
 -1.850000000000000E-002    2.980626378606562E-009
 -1.840000000000000E-002    1.350117174644990E-009
 -1.830000000000000E-002   -6.345368296548147E-010
 -1.820000000000000E-002   -2.880223938531225E-009
 -1.810000000000000E-002   -5.275472288603433E-009
 -1.800000000000000E-002   -7.697411043991394E-009
 -1.790000000000000E-002   -1.001932379291452E-008
 -1.780000000000000E-002   -1.211809411258097E-008
 -1.770000000000000E-002   -1.388087532719239E-008
 -1.760000000000000E-002   -1.521039860610361E-008
 -1.750000000000000E-002   -1.602853481950043E-008
 -1.740000000000000E-002   -1.627795044511431E-008
 -1.730000000000000E-002   -1.592197502282405E-008
 -1.720000000000000E-002   -1.494307665344409E-008
 -1.710000000000000E-002   -1.334059050361493E-008
 -1.700000000000000E-002   -1.112851828704698E-008
 -1.690000000000000E-002   -8.334315851141856E-009
 -1.680000000000000E-002   -4.999582993877859E-009
 -1.670000000000000E-002   -1.183404178632933E-009
 -1.660000000000000E-002    3.031143453259293E-009
 -1.650000000000000E-002    7.527143024105124E-009
 -1.640000000000000E-002    1.214089750770179E-008
 -1.630000000000000E-002    1.664656055040676E-008
 -1.620000000000000E-002    2.073940847876496E-008
 -1.610000000000000E-002    2.401915543542249E-008
 -1.600000000000000E-002    2.597490746390374E-008
 -1.590000000000000E-002    2.597341041043299E-008
 -1.580000000000000E-002    2.325214758021325E-008
 -1.570000000000000E-002    1.691850183773391E-008
 -1.560000000000000E-002    5.955812393517056E-009
 -1.550000000000000E-002   -1.076346451876305E-008
 -1.540000000000000E-002   -3.445788488233312E-008
 -1.530000000000000E-002   -6.641150856548926E-008
 -1.520000000000000E-002   -1.079443258276793E-007
 -1.510000000000000E-002   -1.603807846340275E-007
 -1.500000000000000E-002   -2.250187641287734E-007
 -1.490000000000000E-002   -3.031013319393265E-007
 -1.480000000000000E-002   -3.957936535623677E-007
 -1.470000000000000E-002   -5.041668729290098E-007
 -1.460000000000000E-002   -6.291901001199152E-007
 -1.450000000000000E-002   -7.717312377839042E-007
 -1.440000000000000E-002   -9.325660148353241E-007
 -1.430000000000000E-002   -1.112394546523632E-006
 -1.420000000000000E-002   -1.311863263490211E-006
 -1.410000000000000E-002   -1.531589563252317E-006
 -1.400000000000000E-002   -1.772187802822777E-006
 -1.390000000000000E-002   -2.034292469695239E-006
 -1.380000000000000E-002   -2.318576942744972E-006
 -1.370000000000000E-002   -2.625766170182122E-006
 -1.360000000000000E-002   -2.956640801847177E-006
 -1.350000000000000E-002   -3.312035620477053E-006
 -1.340000000000000E-002   -3.692829239045251E-006
 -1.330000000000000E-002   -4.099929361805213E-006
 -1.320000000000000E-002   -4.534256075483687E-006
 -1.310000000000000E-002   -4.996723591785274E-006
 -1.300000000000000E-002   -5.488227691506544E-006
 -1.290000000000000E-002   -6.009638952331775E-006
 -1.280000000000000E-002   -6.561804776741288E-006
 -1.270000000000000E-002   -7.145563744743424E-006
 -1.260000000000000E-002   -7.761770134744150E-006
 -1.250000000000000E-002   -8.411332969351865E-006
 -1.240000000000000E-002   -9.095261765749720E-006
 -1.230000000000000E-002   -9.814719885335999E-006
 -1.220000000000000E-002   -1.057108472825868E-005
 -1.210000000000000E-002   -1.136600074495170E-005
 -1.200000000000000E-002   -1.220143321145096E-005
 -1.190000000000000E-002   -1.307970660321052E-005
 -1.180000000000000E-002   -1.400353108079883E-005
 -1.170000000000000E-002   -1.497601283679757E-005
 -1.160000000000000E-002   -1.600064486873290E-005
 -1.150000000000000E-002   -1.708128594594888E-005
 -1.140000000000000E-002   -1.822211144363123E-005
 -1.130000000000000E-002   -1.942756617643463E-005
 -1.120000000000000E-002   -2.070229671103763E-005
 -1.110000000000000E-002   -2.205109298659284E-005
 -1.100000000000000E-002   -2.347882406082411E-005
 -1.090000000000000E-002   -2.499038944751702E-005
 -1.080000000000000E-002   -2.659068556000339E-005
 -1.070000000000000E-002   -2.828458972497185E-005
 -1.060000000000000E-002   -3.007695941725146E-005
 -1.050000000000000E-002   -3.197267073972542E-005
 -1.040000000000000E-002   -3.397665822591412E-005
 -1.030000000000000E-002   -3.609398355939987E-005
 -1.020000000000000E-002   -3.832991851782432E-005
 -1.010000000000000E-002   -4.069003023083447E-005
 -1.000000000000000E-002   -4.318026716600270E-005
 -9.899999999999999E-003   -4.580703924755879E-005
 -9.800000000000000E-003   -4.857729106647921E-005
 -9.699999999999999E-003   -5.149854942120561E-005
 -9.599999999999999E-003   -5.457895620492375E-005
 -9.500000000000000E-003   -5.782727530775447E-005
 -9.399999999999999E-003   -6.125288162653628E-005
 -9.299999999999999E-003   -6.486571986846380E-005
 -9.200000000000000E-003   -6.867627302028919E-005
 -9.099999999999999E-003   -7.269548155568672E-005
 -8.999999999999999E-003   -7.693471154709398E-005
 -8.900000000000000E-003   -8.140567942537243E-005
 -8.799999999999999E-003   -8.612040667729164E-005
 -8.699999999999999E-003   -9.109120550238913E-005
 -8.600000000000000E-003   -9.633066966900481E-005
 -8.499999999999999E-003   -1.018516782557133E-004
 -8.399999999999999E-003   -1.076674558708249E-004
 -8.300000000000000E-003   -1.137916264780614E-004
 -8.199999999999999E-003   -1.202382874207827E-004
 -8.100000000000000E-003   -1.270221298419947E-004
 -8.000000000000000E-003   -1.341585075588289E-004
 -7.899999999999999E-003   -1.416635878445344E-004
 -7.800000000000000E-003   -1.495543906862270E-004
 -7.699999999999999E-003   -1.578489364975044E-004
 -7.599999999999999E-003   -1.665662917028920E-004
 -7.499999999999999E-003   -1.757266251914762E-004
 -7.399999999999999E-003   -1.853512730513861E-004
 -7.299999999999999E-003   -1.954627135318016E-004
 -7.199999999999999E-003   -2.060845753400248E-004
 -7.100000000000000E-003   -2.172416521954757E-004
 -6.999999999999999E-003   -2.289598248283113E-004
 -6.899999999999999E-003   -2.412660381791772E-004
 -6.800000000000000E-003   -2.541883185246532E-004
 -6.699999999999999E-003   -2.677556423319822E-004
 -6.599999999999999E-003   -2.819979640779234E-004
 -6.499999999999999E-003   -2.969462055136986E-004
 -6.399999999999999E-003   -3.126322331567116E-004
 -6.299999999999999E-003   -3.290888642227433E-004
 -6.199999999999999E-003   -3.463498871061193E-004
 -6.100000000000000E-003   -3.644501158226571E-004
 -5.999999999999999E-003   -3.834254688052814E-004
 -5.899999999999999E-003   -4.033130040001934E-004
 -5.800000000000000E-003   -4.241509939040315E-004
 -5.699999999999999E-003   -4.459790574465579E-004
 -5.599999999999999E-003   -4.688382084517598E-004
 -5.499999999999999E-003   -4.927710507073677E-004
 -5.399999999999999E-003   -5.178217122771015E-004
 -5.299999999999999E-003   -5.440361656605888E-004
 -5.199999999999999E-003   -5.714622021005093E-004
 -5.099999999999999E-003   -6.001494424518048E-004
 -4.999999999999999E-003   -6.301496102173778E-004
 -4.899999999999999E-003   -6.615164437488685E-004
 -4.799999999999999E-003   -6.943057942484466E-004
 -4.699999999999999E-003   -7.285757187221317E-004
 -4.599999999999999E-003   -7.643863542351724E-004
 -4.499999999999999E-003   -8.018000100900461E-004
 -4.399999999999999E-003   -8.408811756203988E-004
 -4.299999999999999E-003   -8.816963087675439E-004
 -4.199999999999999E-003   -9.243139732306428E-004
 -4.099999999999999E-003   -9.688047489849204E-004
 -3.999999999999999E-003   -1.015240996339511E-003
 -3.899999999999999E-003   -1.063696964636917E-003
 -3.799999999999999E-003   -1.114248811885554E-003
 -3.699999999999999E-003   -1.166974402973124E-003
 -3.599999999999999E-003   -1.221953538328286E-003
 -3.499999999999999E-003   -1.279267784605993E-003
 -3.399999999999999E-003   -1.339000783293825E-003
 -3.299999999999999E-003   -1.401238010599575E-003
 -3.199999999999999E-003   -1.466067392256065E-003
 -3.099999999999999E-003   -1.533578963219334E-003
 -2.999999999999999E-003   -1.603865369848005E-003
 -2.899999999999999E-003   -1.677022092308026E-003
 -2.799999999999999E-003   -1.753147147482270E-003
 -2.699999999999999E-003   -1.832341869102333E-003
 -2.599999999999999E-003   -1.914710533842681E-003
 -2.499999999999999E-003   -2.000360523229265E-003
 -2.399999999999999E-003   -2.089402804393704E-003
 -2.299999999999999E-003   -2.181951522271357E-003
 -2.199999999999999E-003   -2.278123681620114E-003
 -2.099999999999999E-003   -2.378039872517153E-003
 -1.999999999999999E-003   -2.481823125951958E-003
 -1.899999999999999E-003   -2.589599787242831E-003
 -1.799999999999999E-003   -2.701498309554198E-003
 -1.699999999999999E-003   -2.817650009296833E-003
 -1.599999999999999E-003   -2.938188354457028E-003
 -1.499999999999999E-003   -3.063248932845319E-003
 -1.399999999999999E-003   -3.192969268788730E-003
 -1.299999999999999E-003   -3.327488843897469E-003
 -1.199999999999999E-003   -3.466949504631362E-003
 -1.099999999999999E-003   -3.611494662679324E-003
 -9.999999999999989E-004   -3.761269963194173E-003
 -8.999999999999990E-004   -3.916423512124926E-003
 -7.999999999999990E-004   -4.077105321472741E-003
 -6.999999999999989E-004   -4.243468000284323E-003
 -5.999999999999990E-004   -4.415667361313137E-003
 -4.999999999999989E-004   -4.593861553917159E-003
 -3.999999999999989E-004   -4.778211671632581E-003
 -2.999999999999989E-004   -4.968881701367665E-003
 -1.999999999999989E-004   -5.166038983652472E-003
 -9.999999999999892E-005   -5.369852871661659E-003
  1.084202172485504E-018   -5.580496317000627E-003
  1.000000000000011E-004   -5.798144253705634E-003
  2.000000000000011E-004   -6.022973849402865E-003
  3.000000000000011E-004   -6.255163887869503E-003
  4.000000000000011E-004   -6.494895200672275E-003
  5.000000000000011E-004   -6.742349598590593E-003
  6.000000000000011E-004   -6.997709568884844E-003
  7.000000000000011E-004   -7.261157926067735E-003
  8.000000000000011E-004   -7.532877985880563E-003
  9.000000000000012E-004   -7.813053364163724E-003
  1.000000000000001E-003   -8.101866192684343E-003
  1.100000000000001E-003   -8.399499438356767E-003
  1.200000000000001E-003   -8.706135079089145E-003
  1.300000000000001E-003   -9.021955362666704E-003
  1.400000000000001E-003   -9.347139653421205E-003
  1.500000000000001E-003   -9.681869365198839E-003
  1.600000000000001E-003   -1.002632487137313E-002
  1.700000000000001E-003   -1.038068480058788E-002
  1.800000000000001E-003   -1.074512813458291E-002
  1.900000000000001E-003   -1.111983280714309E-002
  2.000000000000001E-003   -1.150497690504763E-002
  2.100000000000001E-003   -1.190073488676247E-002
  2.200000000000001E-003   -1.230728173997575E-002
  2.300000000000001E-003   -1.272478951668370E-002
  2.400000000000001E-003   -1.315342709984228E-002
  2.500000000000001E-003   -1.359336178261197E-002
  2.600000000000001E-003   -1.404475628902229E-002
  2.700000000000001E-003   -1.450776906194518E-002
  2.800000000000001E-003   -1.498255465328631E-002
  2.900000000000001E-003   -1.546926097890189E-002
  3.000000000000001E-003   -1.596803037624484E-002
  3.100000000000001E-003   -1.647899878963848E-002
  3.200000000000001E-003   -1.700229515743181E-002
  3.300000000000001E-003   -1.753804152765765E-002
  3.400000000000001E-003   -1.808635289896744E-002
  3.500000000000001E-003   -1.864733428423460E-002
  3.600000000000001E-003   -1.922108611695939E-002
  3.700000000000001E-003   -1.980769574299121E-002
  3.800000000000001E-003   -2.040724415798139E-002
  3.900000000000001E-003   -2.101980351113689E-002
  4.000000000000001E-003   -2.164543449540706E-002
  4.100000000000001E-003   -2.228418981217734E-002
  4.200000000000001E-003   -2.293610960727416E-002
  4.300000000000001E-003   -2.360122423867462E-002
  4.400000000000001E-003   -2.427955167607834E-002
  4.500000000000001E-003   -2.497109701591199E-002
  4.600000000000002E-003   -2.567585230869179E-002
  4.700000000000001E-003   -2.639379694963389E-002
  4.800000000000001E-003   -2.712489392420979E-002
  4.900000000000002E-003   -2.786909105191566E-002
  5.000000000000001E-003   -2.862632073060214E-002
  5.100000000000001E-003   -2.939649843732223E-002
  5.200000000000001E-003   -3.017952480491238E-002
  5.300000000000002E-003   -3.097527923940973E-002
  5.400000000000001E-003   -3.178362539897327E-002
  5.500000000000001E-003   -3.260440628978564E-002
  5.600000000000002E-003   -3.343744862679798E-002
  5.700000000000001E-003   -3.428255184444468E-002
  5.800000000000001E-003   -3.513950184137548E-002
  5.900000000000002E-003   -3.600806468806147E-002
  6.000000000000001E-003   -3.688797791657621E-002
  6.100000000000001E-003   -3.777896076564490E-002
  6.200000000000002E-003   -3.868070810334653E-002
  6.300000000000002E-003   -3.959289136674182E-002
  6.400000000000001E-003   -4.051515936032200E-002
  6.500000000000001E-003   -4.144713357839545E-002
  6.600000000000002E-003   -4.238840668823971E-002
  6.700000000000001E-003   -4.333854649743698E-002
  6.800000000000001E-003   -4.429709073756096E-002
  6.900000000000002E-003   -4.526355183231714E-002
  7.000000000000001E-003   -4.623741239571476E-002
  7.100000000000001E-003   -4.721812278863858E-002
  7.200000000000002E-003   -4.820510757136735E-002
  7.300000000000002E-003   -4.919775825126947E-002
  7.400000000000001E-003   -5.019543483684711E-002
  7.500000000000001E-003   -5.119746936025204E-002
  7.600000000000002E-003   -5.220315834190526E-002
  7.700000000000001E-003   -5.321177186657929E-002
  7.800000000000001E-003   -5.422254049355957E-002
  7.900000000000001E-003   -5.523467158330315E-002
  8.000000000000002E-003   -5.624733358099526E-002
  8.100000000000001E-003   -5.725966477426225E-002
  8.200000000000001E-003   -5.827077009076854E-002
  8.300000000000002E-003   -5.927971780891760E-002
  8.400000000000001E-003   -6.028554011236716E-002
  8.500000000000002E-003   -6.128723899962249E-002
  8.600000000000002E-003   -6.228377630181541E-002
  8.700000000000001E-003   -6.327407208775626E-002
  8.800000000000002E-003   -6.425702235204984E-002
  8.900000000000002E-003   -6.523147374215707E-002
  9.000000000000001E-003   -6.619624186869695E-002
  9.100000000000002E-003   -6.715010677556284E-002
  9.200000000000002E-003   -6.809179732644804E-002
  9.300000000000001E-003   -6.902002119923094E-002
  9.400000000000002E-003   -6.993343243290114E-002
  9.500000000000001E-003   -7.083066572205943E-002
  9.600000000000001E-003   -7.171031076494905E-002
  9.700000000000002E-003   -7.257091440350746E-002
  9.800000000000001E-003   -7.341099928119055E-002
  9.900000000000001E-003   -7.422905346290198E-002
  1.000000000000000E-002   -7.502352127651621E-002
  1.010000000000000E-002   -7.579281599242167E-002
  1.020000000000000E-002   -7.653531727398021E-002
  1.030000000000000E-002   -7.724937899841958E-002
  1.040000000000000E-002   -7.793330935450282E-002
  1.050000000000000E-002   -7.858540030849603E-002
  1.060000000000000E-002   -7.920389357662459E-002
  1.070000000000000E-002   -7.978700839501147E-002
  1.080000000000000E-002   -8.033293732575462E-002
  1.090000000000000E-002   -8.083983184804798E-002
  1.100000000000000E-002   -8.130581213249086E-002
  1.110000000000000E-002   -8.172897924152392E-002
  1.120000000000000E-002   -8.210740232821133E-002
  1.130000000000000E-002   -8.243911727146266E-002
  1.140000000000000E-002   -8.272214247602812E-002
  1.150000000000000E-002   -8.295445971143058E-002
  1.160000000000000E-002   -8.313403271035673E-002
  1.170000000000000E-002   -8.325880652277590E-002
  1.180000000000000E-002   -8.332670684911844E-002
  1.190000000000000E-002   -8.333563459537723E-002
  1.200000000000000E-002   -8.328347039995716E-002
  1.210000000000000E-002   -8.316808769944060E-002
  1.220000000000000E-002   -8.298734681390357E-002
  1.230000000000000E-002   -8.273908716091707E-002
  1.240000000000000E-002   -8.242114255035793E-002
  1.250000000000000E-002   -8.203133457969038E-002
  1.260000000000000E-002   -8.156748659664069E-002
  1.270000000000000E-002   -8.102741005987159E-002
  1.280000000000000E-002   -8.040890920210045E-002
  1.290000000000000E-002   -7.970978509742468E-002
  1.300000000000000E-002   -7.892784829090524E-002
  1.310000000000000E-002   -7.806090860206182E-002
  1.320000000000000E-002   -7.710677642231005E-002
  1.330000000000000E-002   -7.606326918727736E-002
  1.340000000000000E-002   -7.492821878438809E-002
  1.350000000000000E-002   -7.369945521978648E-002
  1.360000000000000E-002   -7.237483812339437E-002
  1.370000000000000E-002   -7.095223670687750E-002
  1.380000000000000E-002   -6.942953066710358E-002
  1.390000000000000E-002   -6.780463651515550E-002
  1.400000000000000E-002   -6.607547552154043E-002
  1.410000000000000E-002   -6.424001440086695E-002
  1.420000000000000E-002   -6.229623679843329E-002
  1.430000000000000E-002   -6.024216002363600E-002
  1.440000000000000E-002   -5.807583369894552E-002
  1.450000000000000E-002   -5.579534353589957E-002
  1.460000000000000E-002   -5.339881666200672E-002
  1.470000000000000E-002   -5.088441999880185E-002
  1.480000000000000E-002   -4.825036594432865E-002
  1.490000000000000E-002   -4.549491576577853E-002
  1.500000000000000E-002   -4.261637844149055E-002
  1.510000000000000E-002   -3.961311773814541E-002
  1.520000000000000E-002   -3.648354757413885E-002
  1.530000000000000E-002   -3.322614772554446E-002
  1.540000000000000E-002   -2.983945731775077E-002
  1.550000000000000E-002   -2.632207894745673E-002
  1.560000000000000E-002   -2.267268264988560E-002
  1.570000000000000E-002   -1.889000817018792E-002
  1.580000000000000E-002   -1.497287076382569E-002
  1.590000000000000E-002   -1.092015869981875E-002
  1.600000000000000E-002   -6.730840461034122E-003
  1.610000000000000E-002   -2.403965862072100E-003
  1.620000000000000E-002    2.061332503413415E-003
  1.630000000000000E-002    6.665835443617442E-003
  1.640000000000000E-002    1.141023549339948E-002
  1.650000000000000E-002    1.629513392153289E-002
  1.660000000000000E-002    2.132103760277370E-002
  1.670000000000000E-002    2.648835989391623E-002
  1.680000000000000E-002    3.179741515849024E-002
  1.690000000000000E-002    3.724841698575890E-002
  1.700000000000000E-002    4.284147871720127E-002
  1.710000000000000E-002    4.857660503900122E-002
  1.720000000000000E-002    5.445369658135736E-002
  1.730000000000000E-002    6.047254497541991E-002
  1.740000000000000E-002    6.663282537022823E-002
  1.750000000000000E-002    7.293410416558412E-002
  1.760000000000000E-002    7.937582942665833E-002
  1.770000000000000E-002    8.595733201331439E-002
  1.780000000000000E-002    9.267782246186076E-002
  1.790000000000000E-002    9.953639011198416E-002
  1.800000000000000E-002    0.106531997730038     
  1.810000000000000E-002    0.113663488638378     
  1.820000000000000E-002    0.120929581080854     
  1.830000000000000E-002    0.128328861597238     
  1.840000000000000E-002    0.135859789567003     
  1.850000000000000E-002    0.143520693828596     
  1.860000000000000E-002    0.151309790939864     
  1.870000000000000E-002    0.159225147342971     