 -4.000000000000000E-002    0.000000000000000E+000
 -3.990000000000000E-002    0.000000000000000E+000
 -3.980000000000000E-002    0.000000000000000E+000
 -3.970000000000000E-002    0.000000000000000E+000
 -3.960000000000000E-002    1.395376220857026E-018
 -3.950000000000000E-002    1.208253652078873E-017
 -3.940000000000000E-002    5.765665612339411E-017
 -3.930000000000000E-002    2.002437472317996E-016
 -3.920000000000000E-002    5.650106948388056E-016
 -3.910000000000000E-002    1.372613183413097E-015
 -3.900000000000000E-002    2.974016031667312E-015
 -3.890000000000000E-002    5.882163404574787E-015
 -3.880000000000000E-002    1.079242413957413E-014
 -3.870000000000000E-002    1.857999816354775E-014
 -3.860000000000000E-002    3.025726024589207E-014
 -3.850000000000000E-002    4.686793084171378E-014
 -3.840000000000000E-002    6.928997958524673E-014
 -3.830000000000000E-002    9.791854774485773E-014
 -3.820000000000000E-002    1.322082135188871E-013
 -3.810000000000000E-002    1.700742968938793E-013
 -3.800000000000000E-002    2.071879333764798E-013
 -3.790000000000000E-002    2.362470662681679E-013
 -3.780000000000000E-002    2.463590988038712E-013
 -3.770000000000000E-002    2.227183888651270E-013
 -3.760000000000000E-002    1.467878699533605E-013
 -3.750000000000000E-002   -2.818897209051061E-015
 -3.740000000000000E-002   -2.486218891678372E-013
 -3.730000000000000E-002   -6.117103061760772E-013
 -3.720000000000000E-002   -1.108480517766292E-012
 -3.710000000000000E-002   -1.747011246189808E-012
 -3.700000000000000E-002   -2.523579030253376E-012
 -3.690000000000000E-002   -3.419913924586537E-012
 -3.680000000000000E-002   -4.401779451361119E-012
 -3.670000000000000E-002   -5.419284152406746E-012
 -3.660000000000000E-002   -6.409005957809785E-012
 -3.650000000000000E-002   -7.297528267027151E-012
 -3.640000000000000E-002   -8.005475560028968E-012
 -3.630000000000000E-002   -8.450647209241302E-012
 -3.620000000000000E-002   -8.548589366870444E-012
 -3.610000000000000E-002   -8.209018498013588E-012
 -3.600000000000000E-002   -7.327035149769670E-012
 -3.590000000000000E-002   -5.769181626039524E-012
 -3.580000000000000E-002   -3.355860237004654E-012
 -3.570000000000000E-002    1.564340501177483E-013
 -3.560000000000000E-002    5.087832665379230E-012
 -3.550000000000000E-002    1.183598675862808E-011
 -3.540000000000000E-002    2.085775843125481E-011
 -3.530000000000000E-002    3.262486903575001E-011
 -3.520000000000000E-002    4.754892807388296E-011
 -3.510000000000000E-002    6.587502386248918E-011
 -3.500000000000000E-002    8.754850522079292E-011
 -3.490000000000000E-002    1.120659664947329E-010
 -3.480000000000000E-002    1.383279931670713E-010
 -3.470000000000000E-002    1.645171010218152E-010
 -3.460000000000000E-002    1.880277642140476E-010
 -3.450000000000000E-002    2.054760351605040E-010
 -3.440000000000000E-002    2.128125306991168E-010
 -3.430000000000000E-002    2.055543188128073E-010
 -3.420000000000000E-002    1.791384341152326E-010
 -3.410000000000000E-002    1.293839447648402E-010
 -3.400000000000000E-002    5.303160043951372E-011
 -3.390000000000000E-002   -5.168699902548517E-011
 -3.380000000000000E-002   -1.845126282980495E-010
 -3.370000000000000E-002   -3.427238841701484E-010
 -3.360000000000000E-002   -5.208742062397684E-010
 -3.350000000000000E-002   -7.107593668545879E-010
 -3.340000000000000E-002   -9.016552021813598E-010
 -3.330000000000000E-002   -1.080835496137215E-009
 -3.320000000000000E-002   -1.234347037118988E-009
 -3.310000000000000E-002   -1.347980309907087E-009
 -3.300000000000000E-002   -1.408346886862699E-009
 -3.290000000000000E-002   -1.403944294267337E-009
 -3.280000000000000E-002   -1.326084239929489E-009
 -3.270000000000000E-002   -1.169566590161705E-009
 -3.260000000000000E-002   -9.330044239239335E-010
 -3.250000000000000E-002   -6.187533534376762E-010
 -3.240000000000000E-002   -2.324492529683709E-010
 -3.230000000000000E-002    2.177745572847978E-010
 -3.220000000000000E-002    7.222618090987277E-010
 -3.210000000000000E-002    1.270822771632290E-009
 -3.200000000000000E-002    1.853536206532421E-009
 -3.190000000000000E-002    2.461161846808457E-009
 -3.180000000000000E-002    3.085003616428551E-009
 -3.170000000000000E-002    3.716129332668305E-009
 -3.160000000000000E-002    4.343951906117803E-009
 -3.150000000000000E-002    4.954296593946747E-009
 -3.140000000000000E-002    5.527188869925713E-009
 -3.130000000000000E-002    6.034720023670619E-009
 -3.120000000000000E-002    6.439395905353219E-009
 -3.110000000000000E-002    6.693428056370220E-009
 -3.100000000000000E-002    6.739360960921401E-009
 -3.090000000000000E-002    6.512359738417099E-009
 -3.080000000000000E-002    5.944294115137477E-009
 -3.070000000000000E-002    4.969567536658539E-009
 -3.060000000000000E-002    3.532380050368421E-009
 -3.050000000000000E-002    1.594892514413607E-009
 -3.040000000000000E-002   -8.544664577917545E-010
 -3.030000000000000E-002   -3.793447455155626E-009
 -3.020000000000000E-002   -7.160144320231459E-009
 -3.010000000000000E-002   -1.084979590118344E-008
 -3.000000000000000E-002   -1.471496598429923E-008
 -2.990000000000000E-002   -1.856960865156113E-008
 -2.980000000000000E-002   -2.219712295630884E-008
 -2.970000000000000E-002   -2.536212663715226E-008
 -2.960000000000000E-002   -2.782523766715817E-008
 -2.950000000000000E-002   -2.935977258166507E-008
 -2.940000000000000E-002   -2.976897495040581E-008
 -2.930000000000000E-002   -2.890222275970099E-008
 -2.920000000000000E-002   -2.666864088140390E-008
 -2.910000000000000E-002   -2.304674219537316E-008
 -2.900000000000000E-002   -1.808902853054534E-008
 -2.890000000000000E-002   -1.192095021621459E-008
 -2.880000000000000E-002   -4.734202007367178E-009
 -2.870000000000000E-002    3.225099568467288E-009
 -2.860000000000000E-002    1.167224370769390E-008
 -2.850000000000000E-002    2.030220406787836E-008
 -2.840000000000000E-002    2.880852462278405E-008
 -2.830000000000000E-002    3.690091729406745E-008
 -2.820000000000000E-002    4.431977633824232E-008
 -2.810000000000000E-002    5.084621385428212E-008
 -2.800000000000000E-002    5.630677019056093E-008
 -2.790000000000000E-002    6.057254943795334E-008
 -2.780000000000000E-002    6.355335880897624E-008
 -2.770000000000000E-002    6.518797981145843E-008
 -2.760000000000000E-002    6.543229453645408E-008
 -2.750000000000000E-002    6.424733857720925E-008
 -2.740000000000000E-002    6.158937376656038E-008
 -2.730000000000000E-002    5.740398535247145E-008
 -2.720000000000000E-002    5.162563634634926E-008
 -2.710000000000000E-002    4.418347279789197E-008
 -2.700000000000000E-002    3.501337257942632E-008
 -2.690000000000000E-002    2.407530687912646E-008
 -2.680000000000000E-002    1.137425257998483E-008
 -2.670000000000000E-002   -3.017769878551978E-009
 -2.660000000000000E-002   -1.894134527915240E-008
 -2.650000000000000E-002   -3.613394835914212E-008
 -2.640000000000000E-002   -5.422153733277486E-008
 -2.630000000000000E-002   -7.271954547224958E-008
 -2.620000000000000E-002   -9.104445193315875E-008
 -2.610000000000000E-002   -1.085360505050104E-007
 -2.600000000000000E-002   -1.244893284951688E-007
 -2.590000000000000E-002   -1.381937988167643E-007
 -2.580000000000000E-002   -1.489770717397571E-007
 -2.570000000000000E-002   -1.562489325309319E-007
 -2.560000000000000E-002   -1.595417323670789E-007
 -2.550000000000000E-002   -1.585431934525756E-007
 -2.540000000000000E-002   -1.531183632161550E-007
 -2.530000000000000E-002   -1.433181575137181E-007
 -2.520000000000000E-002   -1.293734737557342E-007
 -2.510000000000000E-002   -1.116751975170222E-007
 -2.500000000000000E-002   -9.074178606269887E-008
 -2.490000000000000E-002   -6.717747967117001E-008
 -2.480000000000000E-002   -4.162527554727595E-008
 -2.470000000000000E-002   -1.471922357881539E-008
 -2.460000000000000E-002    1.295912398370120E-008
 -2.450000000000000E-002    4.091575481559764E-008
 -2.440000000000000E-002    6.876726679969015E-008
 -2.430000000000000E-002    9.624975653858393E-008
 -2.420000000000000E-002    1.232128991748946E-007
 -2.410000000000000E-002    1.496003104856309E-007
 -2.400000000000000E-002    1.754187446018967E-007
 -2.390000000000000E-002    2.007002735489986E-007
 -2.380000000000000E-002    2.254623045526922E-007
 -2.370000000000000E-002    2.496708520436998E-007
 -2.360000000000000E-002    2.732121609833734E-007
 -2.350000000000000E-002    2.958774201433269E-007
 -2.340000000000000E-002    3.173632453751954E-007
 -2.330000000000000E-002    3.372898569531169E-007
 -2.320000000000000E-002    3.552359352265476E-007
 -2.310000000000000E-002    3.707880459012981E-007
 -2.300000000000000E-002    3.835999518190568E-007
 -2.290000000000000E-002    3.934561326617204E-007
 -2.280000000000000E-002    4.003328713620187E-007
 -2.270000000000000E-002    4.044499142438441E-007
 -2.260000000000000E-002    4.063065703574557E-007
 -2.250000000000000E-002    4.066969331119241E-007
 -2.240000000000000E-002    4.067012577904475E-007
 -2.230000000000000E-002    4.076525904210643E-007
 -2.220000000000000E-002    4.110803889555449E-007
 -2.210000000000000E-002    4.186354059890426E-007
 -2.200000000000000E-002    4.320024538340757E-007
 -2.190000000000000E-002    4.528090639436196E-007
 -2.180000000000000E-002    4.825391250691037E-007
 -2.170000000000000E-002    5.224606806827636E-007
 -2.160000000000000E-002    5.735758822369241E-007
 -2.150000000000000E-002    6.365991419874627E-007
 -2.140000000000000E-002    7.119675134710420E-007
 -2.130000000000000E-002    7.998833385016400E-007
 -2.120000000000000E-002    9.003864283834466E-007
 -2.110000000000000E-002    1.013449977722770E-006
 -2.100000000000000E-002    1.139090832967528E-006
 -2.090000000000000E-002    1.277484178711362E-006
 -2.080000000000000E-002    1.429070161643615E-006
 -2.070000000000000E-002    1.594641861170624E-006
 -2.060000000000000E-002    1.775403482302995E-006
 -2.050000000000000E-002    1.972993590271452E-006
 -2.040000000000000E-002    2.189466057502486E-006
 -2.030000000000000E-002    2.427232112816344E-006
 -2.020000000000000E-002    2.688965131746528E-006
 -2.010000000000000E-002    2.977475805274833E-006
 -2.000000000000000E-002    3.295571815454686E-006
 -1.990000000000000E-002    3.645909451844701E-006
 -1.980000000000000E-002    4.030857286643843E-006
 -1.970000000000000E-002    4.452379378203683E-006
 -1.960000000000000E-002    4.911953195276788E-006
 -1.950000000000000E-002    5.410530060564953E-006
 -1.940000000000000E-002    5.948538068283444E-006
 -1.930000000000000E-002    6.525934506517662E-006
 -1.920000000000000E-002    7.142295985763674E-006
 -1.910000000000000E-002    7.796942067271797E-006
 -1.900000000000000E-002    8.489078455342725E-006
 -1.890000000000000E-002    9.217948159139545E-006
 -1.880000000000000E-002    9.982974946268274E-006
 -1.870000000000000E-002    1.078388412275758E-005
 -1.860000000000000E-002    1.162079956998461E-005
 -1.850000000000000E-002    1.249429499009235E-005
 -1.840000000000000E-002    1.340541113085951E-005
 -1.830000000000000E-002    1.435563274782974E-005
 -1.820000000000000E-002    1.534683036561208E-005
 -1.810000000000000E-002    1.638118508591622E-005
 -1.800000000000000E-002    1.746109860614238E-005
 -1.790000000000000E-002    1.858910434749408E-005
 -1.780000000000000E-002    1.976779139828714E-005
 -1.770000000000000E-002    2.099976225680391E-005
 -1.760000000000000E-002    2.228761239682723E-005
 -1.750000000000000E-002    2.363395814902791E-005
 -1.740000000000000E-002    2.504149198251937E-005
 -1.730000000000000E-002    2.651308031660014E-005
 -1.720000000000000E-002    2.805188333956383E-005
 -1.710000000000000E-002    2.966148966260973E-005
 -1.700000000000000E-002    3.134606504391591E-005
 -1.690000000000000E-002    3.311047897531409E-005
 -1.680000000000000E-002    3.496043224569525E-005
 -1.670000000000000E-002    3.690253642655963E-005
 -1.660000000000000E-002    3.894438689890753E-005
 -1.650000000000000E-002    4.109458196254118E-005
 -1.640000000000000E-002    4.336270458728450E-005
 -1.630000000000000E-002    4.575930251847031E-005
 -1.620000000000000E-002    4.829580639320756E-005
 -1.610000000000000E-002    5.098446238189967E-005
 -1.600000000000000E-002    5.383824107547565E-005
 -1.590000000000000E-002    5.687075629776700E-005
 -1.580000000000000E-002    6.009618578485791E-005
 -1.570000000000000E-002    6.352920620684124E-005
 -1.560000000000000E-002    6.718495075961030E-005
 -1.550000000000000E-002    7.107897785619268E-005
 -1.540000000000000E-002    7.522726755857342E-005
 -1.530000000000000E-002    7.964621578440581E-005
 -1.520000000000000E-002    8.435264923842085E-005
 -1.510000000000000E-002    8.936385969387309E-005
 -1.500000000000000E-002    9.469761156897751E-005
 -1.490000000000000E-002    1.003721804025610E-004
 -1.480000000000000E-002    1.064063555980355E-004
 -1.470000000000000E-002    1.128194674527232E-004
 -1.460000000000000E-002    1.196313767103045E-004
 -1.450000000000000E-002    1.268624915606990E-004
 -1.440000000000000E-002    1.345337702228417E-004
 -1.430000000000000E-002    1.426667066530870E-004
 -1.420000000000000E-002    1.512833477266879E-004
 -1.410000000000000E-002    1.604062593904498E-004
 -1.400000000000000E-002    1.700585802265469E-004
 -1.390000000000000E-002    1.802639847069546E-004
 -1.380000000000000E-002    1.910467463338742E-004
 -1.370000000000000E-002    2.024317450154212E-004
 -1.360000000000000E-002    2.144444954342151E-004
 -1.350000000000000E-002    2.271112034316491E-004
 -1.340000000000000E-002    2.404587926753416E-004
 -1.330000000000000E-002    2.545149492980258E-004
 -1.320000000000000E-002    2.693081806611125E-004
 -1.310000000000000E-002    2.848678956190452E-004
 -1.300000000000000E-002    3.012243955497781E-004
 -1.290000000000000E-002    3.184089481298150E-004
 -1.280000000000000E-002    3.364539029762085E-004
 -1.270000000000000E-002    3.553925981731531E-004
 -1.260000000000000E-002    3.752595482829704E-004
 -1.250000000000000E-002    3.960903776707541E-004
 -1.240000000000000E-002    4.179219625775853E-004
 -1.230000000000000E-002    4.407924316043211E-004
 -1.220000000000000E-002    4.647412280547757E-004
 -1.210000000000000E-002    4.898091710452184E-004
 -1.200000000000000E-002    5.160385388210388E-004
 -1.190000000000000E-002    5.434732459064151E-004
 -1.180000000000000E-002    5.721588708717619E-004
 -1.170000000000000E-002    6.021427874662405E-004
 -1.160000000000000E-002    6.334744833480839E-004
 -1.150000000000000E-002    6.662055556329498E-004
 -1.140000000000000E-002    7.003901017437389E-004
 -1.130000000000000E-002    7.360848645690198E-004
 -1.120000000000000E-002    7.733495092868313E-004
 -1.110000000000000E-002    8.122468351398840E-004
 -1.100000000000000E-002    8.528429331868197E-004
 -1.090000000000000E-002    8.952075827720892E-004
 -1.080000000000000E-002    9.394142749908326E-004
 -1.070000000000000E-002    9.855403325551271E-004
 -1.060000000000000E-002    1.033667085985051E-003
 -1.050000000000000E-002    1.083879861236231E-003
 -1.040000000000000E-002    1.136267949398807E-003
 -1.030000000000000E-002    1.190924667474453E-003
 -1.020000000000000E-002    1.247947210501317E-003
 -1.010000000000000E-002    1.307436580933902E-003
 -1.000000000000000E-002    1.369497540466251E-003
 -9.899999999999999E-003    1.434238364048893E-003
 -9.800000000000000E-003    1.501771018132768E-003
 -9.699999999999999E-003    1.572211210600274E-003
 -9.599999999999999E-003    1.645678278290182E-003
 -9.500000000000000E-003    1.722295203682953E-003
 -9.399999999999999E-003    1.802188943934986E-003
 -9.299999999999999E-003    1.885490355707967E-003
 -9.200000000000000E-003    1.972334895797813E-003
 -9.099999999999999E-003    2.062862168169533E-003
 -8.999999999999999E-003    2.157216649691548E-003
 -8.900000000000000E-003    2.255547728664860E-003
 -8.799999999999999E-003    2.358009719098456E-003
 -8.699999999999999E-003    2.464762110767827E-003
 -8.600000000000000E-003    2.575969136323546E-003
 -8.499999999999999E-003    2.691800855542567E-003
 -8.399999999999999E-003    2.812431706111528E-003
 -8.300000000000000E-003    2.938041749442251E-003
 -8.199999999999999E-003    3.068815585477374E-003
 -8.100000000000000E-003    3.204942707427933E-003
 -8.000000000000000E-003    3.346617088156982E-003
 -7.899999999999999E-003    3.494037439323730E-003
 -7.800000000000000E-003    3.647406933112865E-003
 -7.699999999999999E-003    3.806933421192809E-003
 -7.599999999999999E-003    3.972829110870956E-003
 -7.499999999999999E-003    4.145310986763148E-003
 -7.399999999999999E-003    4.324601189376074E-003
 -7.299999999999999E-003    4.510926549581887E-003
 -7.199999999999999E-003    4.704519798814276E-003
 -7.100000000000000E-003    4.905618983221757E-003
 -6.999999999999999E-003    5.114468062256805E-003
 -6.899999999999999E-003    5.331317000364468E-003
 -6.800000000000000E-003    5.556422338537830E-003
 -6.699999999999999E-003    5.790047444581955E-003
 -6.599999999999999E-003    6.032461894162768E-003
 -6.499999999999999E-003    6.283941930503131E-003
 -6.399999999999999E-003    6.544770942961708E-003
 -6.299999999999999E-003    6.815238524583223E-003
 -6.199999999999999E-003    7.095641411289444E-003
 -6.100000000000000E-003    7.386282877532709E-003
 -5.999999999999999E-003    7.687472944607701E-003
 -5.899999999999999E-003    7.999527734581275E-003
 -5.800000000000000E-003    8.322769926681704E-003
 -5.699999999999999E-003    8.657529848556066E-003
 -5.599999999999999E-003    9.004142494476496E-003
 -5.499999999999999E-003    9.362950713453515E-003
 -5.399999999999999E-003    9.734303742996425E-003
 -5.299999999999999E-003    1.011855749048032E-002
 -5.199999999999999E-003    1.051607417577050E-002
 -5.099999999999999E-003    1.092722382855203E-002
 -4.999999999999999E-003    1.135238294387756E-002
 -4.899999999999999E-003    1.179193477418111E-002
 -4.799999999999999E-003    1.224626990189139E-002
 -4.699999999999999E-003    1.271578616909916E-002
 -4.599999999999999E-003    1.320088794491425E-002
 -4.499999999999999E-003    1.370198674472507E-002
 -4.399999999999999E-003    1.421950023606715E-002
 -4.299999999999999E-003    1.475385311258493E-002
 -4.199999999999999E-003    1.530547739277118E-002
 -4.099999999999999E-003    1.587480905944353E-002
 -3.999999999999999E-003    1.646229166842298E-002
 -3.899999999999999E-003    1.706837250662765E-002
 -3.799999999999999E-003    1.769350586861429E-002
 -3.699999999999999E-003    1.833815066509911E-002
 -3.599999999999999E-003    1.900277019341233E-002
 -3.499999999999999E-003    1.968783182047884E-002
 -3.399999999999999E-003    2.039380659045472E-002
 -3.299999999999999E-003    2.112116970492133E-002
 -3.199999999999999E-003    2.187040096411669E-002
 -3.099999999999999E-003    2.264198097584720E-002
 -2.999999999999999E-003    2.343639362294899E-002
 -2.899999999999999E-003    2.425412435420265E-002
 -2.799999999999999E-003    2.509566274859864E-002
 -2.699999999999999E-003    2.596149775878894E-002
 -2.599999999999999E-003    2.685212023965074E-002
 -2.499999999999999E-003    2.776801875690327E-002
 -2.399999999999999E-003    2.870968567328498E-002
 -2.299999999999999E-003    2.967761052578334E-002
 -2.199999999999999E-003    3.067228000512838E-002
 -2.099999999999999E-003    3.169417906171626E-002
 -1.999999999999999E-003    3.274378856494974E-002
 -1.899999999999999E-003    3.382158819506272E-002
 -1.799999999999999E-003    3.492805118667188E-002
 -1.699999999999999E-003    3.606364154252287E-002
 -1.599999999999999E-003    3.722882141847431E-002
 -1.499999999999999E-003    3.842404305889238E-002
 -1.399999999999999E-003    3.964975650910776E-002
 -1.299999999999999E-003    4.090639460575757E-002
 -1.199999999999999E-003    4.219438452690953E-002
 -1.099999999999999E-003    4.351414274394318E-002
 -9.999999999999989E-004    4.486607465795236E-002
 -8.999999999999990E-004    4.625057932691466E-002
 -7.999999999999990E-004    4.766803298915091E-002
 -6.999999999999989E-004    4.911881030699584E-002
 -5.999999999999990E-004    5.060326335519671E-002
 -4.999999999999989E-004    5.212173383022358E-002
 -3.999999999999989E-004    5.367454421567713E-002
 -2.999999999999989E-004    5.526200368155822E-002
 -1.999999999999989E-004    5.688440019879186E-002
 -9.999999999999892E-005    5.854200133873742E-002
  1.084202172485504E-018    6.023505520315568E-002
  1.000000000000011E-004    6.196378276011451E-002
  2.000000000000011E-004    6.372837898842069E-002
  3.000000000000011E-004    6.552901773486933E-002
  4.000000000000011E-004    6.736584678496120E-002
  5.000000000000011E-004    6.923897566608350E-002
  6.000000000000011E-004    7.114848047935704E-002
  7.000000000000011E-004    7.309441753618451E-002
  8.000000000000011E-004    7.507680171265561E-002
  9.000000000000012E-004    7.709560196195499E-002
  1.000000000000001E-003    7.915076770950787E-002
  1.100000000000001E-003    8.124219752273527E-002
  1.200000000000001E-003    8.336975962274218E-002
  1.300000000000001E-003    8.553327581218299E-002
  1.400000000000001E-003    8.773251714607082E-002
  1.500000000000001E-003    8.996722015905388E-002
  1.600000000000001E-003    9.223707808711649E-002
  1.700000000000001E-003    9.454173080422952E-002
  1.800000000000001E-003    9.688076087800013E-002
  1.900000000000001E-003    9.925370670406290E-002
  2.000000000000001E-003    0.101660051337381     
  2.100000000000001E-003    0.104099210602806     
  2.200000000000001E-003    0.106570554615456     
  2.300000000000001E-003    0.109073377226397     
  2.400000000000001E-003    0.111606914347368     
  2.500000000000001E-003    0.114170334342178     
  2.600000000000001E-003    0.116762737581825     
  2.700000000000001E-003    0.119383143217145     
  2.800000000000001E-003    0.122030500948879     
  2.900000000000001E-003    0.124703691564392     
  3.000000000000001E-003    0.127401516253137     
  3.100000000000001E-003    0.130122703514927     
  3.200000000000001E-003    0.132865887426260     
  3.300000000000001E-003    0.135629629561684     
  3.400000000000001E-003    0.138412426285197     
  3.500000000000001E-003    0.141212651431444     
  3.600000000000001E-003    0.144028613864999     
  3.700000000000001E-003    0.146858533670903     
  3.800000000000001E-003    0.149700535310968     
  3.900000000000001E-003    0.152552646339028     
  4.000000000000001E-003    0.155412798639355     
  4.100000000000001E-003    0.158278819391030     
  4.200000000000001E-003    0.161148423308619     
  4.300000000000001E-003    0.164019239002320     
  4.400000000000001E-003    0.166888794112659     
  4.500000000000001E-003    0.169754485389184     
  4.600000000000002E-003    0.172613614380933     
  4.700000000000001E-003    0.175463366611223     
  4.800000000000001E-003    0.178300807985509     
  4.900000000000002E-003    0.181122920515168     
  5.000000000000001E-003    0.183926531225597     
  5.100000000000001E-003    0.186708382945029     
  5.200000000000001E-003    0.189465094397811     
  5.300000000000002E-003    0.192193172812726     
  5.400000000000001E-003    0.194888994434157     
  5.500000000000001E-003    0.197548834060805     
  5.600000000000002E-003    0.200168846036083     
  5.700000000000001E-003    0.202745045677731     
  5.800000000000001E-003    0.205273329423242     
  5.900000000000002E-003    0.207749494110208     
  6.000000000000001E-003    0.210169192189179     
  6.100000000000001E-003    0.212527939864058     
  6.200000000000002E-003    0.214821161860358     
  6.300000000000002E-003    0.217044128652778     
  6.400000000000001E-003    0.219192010572153     
  6.500000000000001E-003    0.221259829034482     
  6.600000000000002E-003    0.223242480051048     
  6.700000000000001E-003    0.225134761689836     
  6.800000000000001E-003    0.226931354288322     
  6.900000000000002E-003    0.228626785202032     
  7.000000000000001E-003    0.230215494688562     
  7.100000000000001E-003    0.231691790480184     
  7.200000000000002E-003    0.233049881784784     
  7.300000000000002E-003    0.234283855782925     
  7.400000000000001E-003    0.235387687010829     
  7.500000000000001E-003    0.236355248181413     
  7.600000000000002E-003    0.237180295899707     
  7.700000000000001E-003    0.237856485510040     
  7.800000000000001E-003    0.238377372896222     
  7.900000000000001E-003    0.238736421105323     
  8.000000000000002E-003    0.238926986210312     
  8.100000000000001E-003    0.238942320479491     
  8.200000000000001E-003    0.238775607522755     
  8.300000000000002E-003    0.238419941336551     
  8.400000000000001E-003    0.237868317399284     
  8.500000000000002E-003    0.237113673291437     
  8.600000000000002E-003    0.236148885156666     
  8.700000000000001E-003    0.234966741717722     
  8.800000000000002E-003    0.233559983460792     
  8.900000000000002E-003    0.231921315693053     
  9.000000000000001E-003    0.230043378774997     
  9.100000000000002E-003    0.227918769982101     
  9.200000000000002E-003    0.225540070862260     
  9.300000000000001E-003    0.222899819263771     
  9.400000000000002E-003    0.219990547718811     
  9.500000000000001E-003    0.216804770452517     
  9.600000000000001E-003    0.213335004918246     
  9.700000000000002E-003    0.209573757829313     
  9.800000000000001E-003    0.205513536116020     
  9.900000000000001E-003    0.201146896455868     
  1.000000000000000E-002    0.196466402220213     
  1.010000000000000E-002    0.191464660595156     
  1.020000000000000E-002    0.186134324023677     
  1.030000000000000E-002    0.180468088197447     
  1.040000000000000E-002    0.174458735807187     
  1.050000000000000E-002    0.168099122822367     
  1.060000000000000E-002    0.161382174050486     
  1.070000000000000E-002    0.154300924569156     
  1.080000000000000E-002    0.146848521954335     
  1.090000000000000E-002    0.139018231358355     
  1.100000000000000E-002    0.130803440181027     
  1.110000000000000E-002    0.122197699869611     
  1.120000000000000E-002    0.113194694779843     
  1.130000000000000E-002    0.103788292134079     
  1.140000000000000E-002    9.397253107639732E-002
  1.150000000000000E-002    8.374163416384701E-002
  1.160000000000000E-002    7.309003315470732E-002
  1.170000000000000E-002    6.201236259596740E-002
  1.180000000000000E-002    5.050349718842318E-002
  1.190000000000000E-002    3.855854027142985E-002
  1.200000000000000E-002    2.617285166728542E-002
  1.210000000000000E-002    1.334205104495907E-002
  1.220000000000000E-002    6.203888081218601E-005
  1.230000000000000E-002   -1.367099519906518E-002
  1.240000000000000E-002   -2.786055492552164E-002
  1.250000000000000E-002   -4.250982979829940E-002
  1.260000000000000E-002   -5.762167085558194E-002
  1.270000000000000E-002   -7.319859305073985E-002
  1.280000000000000E-002   -8.924275151664186E-002
  1.290000000000000E-002   -0.105755934927728     
  1.300000000000000E-002   -0.122739549128936     
  1.310000000000000E-002   -0.140194596907154     
  1.320000000000000E-002   -0.158121683168271     
  1.330000000000000E-002   -0.176520976642587     
  1.340000000000000E-002   -0.195392243852062     
  1.350000000000000E-002   -0.214734776660020     
  1.360000000000000E-002   -0.234547426143689     
  1.370000000000000E-002   -0.254828572412719     
  1.380000000000000E-002   -0.275576111899824     
  1.390000000000000E-002   -0.296787457789146     
  1.400000000000000E-002   -0.318459518517529     
  1.410000000000000E-002   -0.340588691323123     
  1.420000000000000E-002   -0.363170832858601     
  1.430000000000000E-002   -0.386201287427982     
  1.440000000000000E-002   -0.409674874620728     
  1.450000000000000E-002   -0.433585796580143     
  1.460000000000000E-002   -0.457927769109889     
  1.470000000000000E-002   -0.482693885256685     
  1.480000000000000E-002   -0.507876703410907     
  1.490000000000000E-002   -0.533468166519694     
  1.500000000000000E-002   -0.559459669451418     
  1.510000000000000E-002   -0.585841994958513     
  1.520000000000000E-002   -0.612605252684847     
  1.530000000000000E-002   -0.639739056113961     
  1.540000000000000E-002   -0.667232363301925     
  1.550000000000000E-002   -0.695073492201253     
  1.560000000000000E-002   -0.723250200449677     
  1.570000000000000E-002   -0.751749562396174     
  1.580000000000000E-002   -0.780558061663452     
  1.590000000000000E-002   -0.809661590074936     
  1.600000000000000E-002   -0.839045386861473     
  1.610000000000000E-002   -0.868694037533595     
  1.620000000000000E-002   -0.898591516966194     
  1.630000000000000E-002   -0.928721192328509     
  1.640000000000000E-002   -0.959065873047961     
  1.650000000000000E-002   -0.989607718245890     
  1.660000000000000E-002    -1.02032828098741     
  1.670000000000000E-002    -1.05120839901102     
  1.680000000000000E-002    -1.08222860279653     
  1.690000000000000E-002    -1.11336851266298     
  1.700000000000000E-002    -1.14460743341725     
  1.710000000000000E-002    -1.17592392849785     
  1.720000000000000E-002    -1.20729618680576     
  1.730000000000000E-002    -1.23870156255852     
  1.740000000000000E-002    -1.27011712739639     
  1.750000000000000E-002    -1.30151940080668     
  1.760000000000000E-002    -1.33288432747437     
  1.770000000000000E-002    -1.36418729646949     
  1.780000000000000E-002    -1.39540336403142     
  1.790000000000000E-002    -1.42650702519803     
  1.800000000000000E-002    -1.45747233999776     
  1.810000000000000E-002    -1.48827303384461     
  1.820000000000000E-002    -1.51888234800215     
  1.830000000000000E-002    -1.54927313971053     
  1.840000000000000E-002    -1.57941793430340     
  1.850000000000000E-002    -1.60928893763229     
  1.860000000000000E-002    -1.63885805430047     
  1.870000000000000E-002    -1.66809680251136     