 -4.000000000000000E-002    0.000000000000000E+000
 -3.990000000000000E-002    0.000000000000000E+000
 -3.980000000000000E-002    0.000000000000000E+000
 -3.970000000000000E-002    4.441184759593053E-016
 -3.960000000000000E-002    2.393417945226436E-015
 -3.950000000000000E-002    6.128856063215062E-015
 -3.940000000000000E-002    6.630502792974117E-015
 -3.930000000000000E-002   -1.545654956704450E-014
 -3.920000000000000E-002   -1.081819022194966E-013
 -3.910000000000000E-002   -3.678649734923760E-013
 -3.900000000000000E-002   -9.626348538055529E-013
 -3.890000000000000E-002   -2.157403708292675E-012
 -3.880000000000000E-002   -4.336389401985464E-012
 -3.870000000000000E-002   -8.017924067690562E-012
 -3.860000000000000E-002   -1.385476675605051E-011
 -3.850000000000000E-002   -2.261171001912170E-011
 -3.840000000000000E-002   -3.511107277731666E-011
 -3.830000000000000E-002   -5.213614912515855E-011
 -3.820000000000000E-002   -7.428353061370380E-011
 -3.810000000000000E-002   -1.017584258499551E-010
 -3.800000000000000E-002   -1.341133671644567E-010
 -3.790000000000000E-002   -1.699405640880994E-010
 -3.780000000000000E-002   -2.065418920628279E-010
 -3.770000000000000E-002   -2.396167753945668E-010
 -3.760000000000000E-002   -2.630252465308959E-010
 -3.750000000000000E-002   -2.686981799397542E-010
 -3.740000000000000E-002   -2.467748685857335E-010
 -3.730000000000000E-002   -1.860457888596031E-010
 -3.720000000000000E-002   -7.476157762968066E-011
 -3.710000000000000E-002    9.816456872865825E-011
 -3.700000000000000E-002    3.415835559258564E-010
 -3.690000000000000E-002    6.602540116281921E-010
 -3.680000000000000E-002    1.052860958053685E-009
 -3.670000000000000E-002    1.510136777052311E-009
 -3.660000000000000E-002    2.013368061325720E-009
 -3.650000000000000E-002    2.533595392904302E-009
 -3.640000000000000E-002    3.031805764431939E-009
 -3.630000000000000E-002    3.460355753680123E-009
 -3.620000000000000E-002    3.765755990424290E-009
 -3.610000000000000E-002    3.892794540849552E-009
 -3.600000000000000E-002    3.789793239218196E-009
 -3.590000000000000E-002    3.414592634439935E-009
 -3.580000000000000E-002    2.740682883028428E-009
 -3.570000000000000E-002    1.762761617973520E-009
 -3.560000000000000E-002    5.009345650330365E-010
 -3.550000000000000E-002   -9.971879358727785E-010
 -3.540000000000000E-002   -2.657111678577487E-009
 -3.530000000000000E-002   -4.381158422331189E-009
 -3.520000000000000E-002   -6.055271350067868E-009
 -3.510000000000000E-002   -7.558565999174797E-009
 -3.500000000000000E-002   -8.774852754578795E-009
 -3.490000000000000E-002   -9.605008208999609E-009
 -3.480000000000000E-002   -9.978793461595023E-009
 -3.470000000000000E-002   -9.864620081934770E-009
 -3.460000000000000E-002   -9.275817971177824E-009
 -3.450000000000000E-002   -8.272219189271759E-009
 -3.440000000000000E-002   -6.956334079035815E-009
 -3.430000000000000E-002   -5.463978065000644E-009
 -3.420000000000000E-002   -3.949897124786934E-009
 -3.410000000000000E-002   -2.569625690422939E-009
 -3.400000000000000E-002   -1.459413604197625E-009
 -3.390000000000000E-002   -7.164922255278446E-010
 -3.380000000000000E-002   -3.821422256912834E-010
 -3.370000000000000E-002   -4.299166613033675E-010
 -3.360000000000000E-002   -7.609703545781711E-010
 -3.350000000000000E-002   -1.207759245174799E-009
 -3.340000000000000E-002   -1.546473932384771E-009
 -3.330000000000000E-002   -1.517537749018768E-009
 -3.320000000000000E-002   -8.525202838442499E-010
 -3.310000000000000E-002    6.951385099848053E-010
 -3.300000000000000E-002    3.318759147397240E-009
 -3.290000000000000E-002    7.129965232058778E-009
 -3.280000000000000E-002    1.213651392954565E-008
 -3.270000000000000E-002    1.822931585063420E-008
 -3.260000000000000E-002    2.518068318977903E-008
 -3.250000000000000E-002    3.265463972434382E-008
 -3.240000000000000E-002    4.022884126155535E-008
 -3.230000000000000E-002    4.742631926100609E-008
 -3.220000000000000E-002    5.375408998388281E-008
 -3.210000000000000E-002    5.874482984079099E-008
 -3.200000000000000E-002    6.199730055965191E-008
 -3.190000000000000E-002    6.321127233789026E-008
 -3.180000000000000E-002    6.221312349609806E-008
 -3.170000000000000E-002    5.896928067080895E-008
 -3.160000000000000E-002    5.358584369757606E-008
 -3.150000000000000E-002    4.629425341361841E-008
 -3.140000000000000E-002    3.742430801820915E-008
 -3.130000000000000E-002    2.736718075776455E-008
 -3.120000000000000E-002    1.653220162879584E-008
 -3.110000000000000E-002    5.301781190402242E-009
 -3.100000000000000E-002   -6.010826449013648E-009
 -3.090000000000000E-002   -1.719653028466960E-008
 -3.080000000000000E-002   -2.817454295306224E-008
 -3.070000000000000E-002   -3.900284237349439E-008
 -3.060000000000000E-002   -4.987371681059261E-008
 -3.050000000000000E-002   -6.109427719598621E-008
 -3.040000000000000E-002   -7.305329545262219E-008
 -3.030000000000000E-002   -8.617702623113870E-008
 -3.020000000000000E-002   -1.008773907614813E-007
 -3.010000000000000E-002   -1.174968602815715E-007
 -3.000000000000000E-002   -1.362544261718953E-007
 -2.990000000000000E-002   -1.571972359507303E-007
 -2.980000000000000E-002   -1.801619315457677E-007
 -2.970000000000000E-002   -2.047493534415482E-007
 -2.960000000000000E-002   -2.303152695764737E-007
 -2.950000000000000E-002   -2.559788223567622E-007
 -2.940000000000000E-002   -2.806492328825869E-007
 -2.930000000000000E-002   -3.030702723212351E-007
 -2.920000000000000E-002   -3.218806407170810E-007
 -2.910000000000000E-002   -3.356872093759731E-007
 -2.900000000000000E-002   -3.431470909470221E-007
 -2.890000000000000E-002   -3.430532435805898E-007
 -2.880000000000000E-002   -3.344184722347531E-007
 -2.870000000000000E-002   -3.165511364010148E-007
 -2.860000000000000E-002   -2.891169124557943E-007
 -2.850000000000000E-002   -2.521809100910887E-007
 -2.840000000000000E-002   -2.062257578865551E-007
 -2.830000000000000E-002   -1.521430447600626E-007
 -2.820000000000000E-002   -9.119709192858780E-008
 -2.810000000000000E-002   -2.496194982072630E-008
 -2.800000000000000E-002    4.476300305114992E-008
 -2.790000000000000E-002    1.160546244191708E-007
 -2.780000000000000E-002    1.869741396588836E-007
 -2.770000000000000E-002    2.556748806712943E-007
 -2.760000000000000E-002    3.204968774423966E-007
 -2.750000000000000E-002    3.800408509005576E-007
 -2.740000000000000E-002    4.332125664435550E-007
 -2.730000000000000E-002    4.792313522577212E-007
 -2.720000000000000E-002    5.176017086463368E-007
 -2.710000000000000E-002    5.480491362018108E-007
 -2.700000000000000E-002    5.704239580338913E-007
 -2.690000000000000E-002    5.845836625095199E-007
 -2.680000000000000E-002    5.902648318961488E-007
 -2.670000000000000E-002    5.869577239324263E-007
 -2.660000000000000E-002    5.737957964663522E-007
 -2.650000000000000E-002    5.494744217059002E-007
 -2.640000000000000E-002    5.122070010828267E-007
 -2.630000000000000E-002    4.597238233257306E-007
 -2.620000000000000E-002    3.893158074023781E-007
 -2.610000000000000E-002    2.979201755906186E-007
 -2.600000000000000E-002    1.822351712036176E-007
 -2.590000000000000E-002    3.885858804908392E-008
 -2.580000000000000E-002   -1.355703522012768E-007
 -2.570000000000000E-002   -3.442384263071274E-007
 -2.560000000000000E-002   -5.900484352400951E-007
 -2.550000000000000E-002   -8.755463306477390E-007
 -2.540000000000000E-002   -1.202889074210699E-006
 -2.530000000000000E-002   -1.573859721033577E-006
 -2.520000000000000E-002   -1.989923108918995E-006
 -2.510000000000000E-002   -2.452318211774374E-006
 -2.500000000000000E-002   -2.962169258346154E-006
 -2.490000000000000E-002   -3.520610830205025E-006
 -2.480000000000000E-002   -4.128896347593975E-006
 -2.470000000000000E-002   -4.788500506098516E-006
 -2.460000000000000E-002   -5.501177202519412E-006
 -2.450000000000000E-002   -6.268987427583923E-006
 -2.440000000000000E-002   -7.094291618620003E-006
 -2.430000000000000E-002   -7.979707179274987E-006
 -2.420000000000000E-002   -8.928046480339177E-006
 -2.410000000000000E-002   -9.942242431731898E-006
 -2.400000000000000E-002   -1.102528692666766E-005
 -2.390000000000000E-002   -1.218018909962681E-005
 -2.380000000000000E-002   -1.340996840434030E-005
 -2.370000000000000E-002   -1.471769521932776E-005
 -2.360000000000000E-002   -1.610656577411835E-005
 -2.350000000000000E-002   -1.758003349597363E-005
 -2.340000000000000E-002   -1.914195755341194E-005
 -2.330000000000000E-002   -2.079677251953408E-005
 -2.320000000000000E-002   -2.254965725765737E-005
 -2.310000000000000E-002   -2.440666094274665E-005
 -2.300000000000000E-002   -2.637480493454869E-005
 -2.290000000000000E-002   -2.846210197677094E-005
 -2.280000000000000E-002   -3.067752065628479E-005
 -2.270000000000000E-002   -3.303087618931562E-005
 -2.260000000000000E-002   -3.553264183377693E-005
 -2.250000000000000E-002   -3.819373834273227E-005
 -2.240000000000000E-002   -4.102528119047616E-005
 -2.230000000000000E-002   -4.403832021881546E-005
 -2.220000000000000E-002   -4.724363872988515E-005
 -2.210000000000000E-002   -5.065159998406880E-005
 -2.200000000000000E-002   -5.427208637994340E-005
 -2.190000000000000E-002   -5.811451890848952E-005
 -2.180000000000000E-002   -6.218803612888793E-005
 -2.170000000000000E-002   -6.650172347685828E-005
 -2.160000000000000E-002   -7.106497226289466E-005
 -2.150000000000000E-002   -7.588789377368832E-005
 -2.140000000000000E-002   -8.098175793904194E-005
 -2.130000000000000E-002   -8.635942331015558E-005
 -2.120000000000000E-002   -9.203572192979766E-005
 -2.110000000000000E-002   -9.802777614540465E-005
 -2.100000000000000E-002   -1.043551595811397E-004
 -2.090000000000000E-002   -1.110399578276402E-004
 -2.080000000000000E-002   -1.181066902585592E-004
 -2.070000000000000E-002   -1.255820573377834E-004
 -2.060000000000000E-002   -1.334945977547799E-004
 -2.050000000000000E-002   -1.418742779157154E-004
 -2.040000000000000E-002   -1.507519795580975E-004
 -2.030000000000000E-002   -1.601590640804654E-004
 -2.020000000000000E-002   -1.701269638278061E-004
 -2.010000000000000E-002   -1.806868346881268E-004
 -2.000000000000000E-002   -1.918693714624792E-004
 -1.990000000000000E-002   -2.037048330378825E-004
 -1.980000000000000E-002   -2.162231205251478E-004
 -1.970000000000000E-002   -2.294540952704864E-004
 -1.960000000000000E-002   -2.434280494159353E-004
 -1.950000000000000E-002   -2.581762958888725E-004
 -1.940000000000000E-002   -2.737316977402679E-004
 -1.930000000000000E-002   -2.901294058510355E-004
 -1.920000000000000E-002   -3.074073590637613E-004
 -1.910000000000000E-002   -3.256068566347299E-004
 -1.900000000000000E-002   -3.447729315312014E-004
 -1.890000000000000E-002   -3.649545862073934E-004
 -1.880000000000000E-002   -3.862048526894560E-004
 -1.870000000000000E-002   -4.085806819327778E-004
 -1.860000000000000E-002   -4.321427521301221E-004
 -1.850000000000000E-002   -4.569551470407249E-004
 -1.840000000000000E-002   -4.830850431481141E-004
 -1.830000000000000E-002   -5.106020869923444E-004
 -1.820000000000000E-002   -5.395783147965508E-004
 -1.810000000000000E-002   -5.700877147520192E-004
 -1.800000000000000E-002   -6.022062057587150E-004
 -1.790000000000000E-002   -6.360116292704667E-004
 -1.780000000000000E-002   -6.715838796763216E-004
 -1.770000000000000E-002   -7.090051295264754E-004
 -1.760000000000000E-002   -7.483604986572242E-004
 -1.750000000000000E-002   -7.897382749927033E-004
 -1.740000000000000E-002   -8.332305157763201E-004
 -1.730000000000000E-002   -8.789337273969791E-004
 -1.720000000000000E-002   -9.269491589075840E-004
 -1.710000000000000E-002   -9.773832152606130E-004
 -1.700000000000000E-002   -1.030347466173853E-003
 -1.690000000000000E-002   -1.085959379172344E-003
 -1.680000000000000E-002   -1.144341525374002E-003
 -1.670000000000000E-002   -1.205622147386528E-003
 -1.660000000000000E-002   -1.269934498116930E-003
 -1.650000000000000E-002   -1.337416785155914E-003
 -1.640000000000000E-002   -1.408212273789121E-003
 -1.630000000000000E-002   -1.482468868554306E-003
 -1.620000000000000E-002   -1.560339121184950E-003
 -1.610000000000000E-002   -1.641980405259533E-003
 -1.600000000000000E-002   -1.727555603685399E-003
 -1.590000000000000E-002   -1.817232978894337E-003
 -1.580000000000000E-002   -1.911186886938197E-003
 -1.570000000000000E-002   -2.009598420057478E-003
 -1.560000000000000E-002   -2.112656376115406E-003
 -1.550000000000000E-002   -2.220557224638939E-003
 -1.540000000000000E-002   -2.333506113970520E-003
 -1.530000000000000E-002   -2.451717141481137E-003
 -1.520000000000000E-002   -2.575413750807123E-003
 -1.510000000000000E-002   -2.704828472448551E-003
 -1.500000000000000E-002   -2.840203911947124E-003
 -1.490000000000000E-002   -2.981791069990560E-003
 -1.480000000000000E-002   -3.129850364596542E-003
 -1.470000000000000E-002   -3.284650373107090E-003
 -1.460000000000000E-002   -3.446468385659915E-003
 -1.450000000000000E-002   -3.615589071956812E-003
 -1.440000000000000E-002   -3.792305466804054E-003
 -1.430000000000000E-002   -3.976917738434587E-003
 -1.420000000000000E-002   -4.169734551569778E-003
 -1.410000000000000E-002   -4.371072097593181E-003
 -1.400000000000000E-002   -4.581256177789012E-003
 -1.390000000000000E-002   -4.800621593670304E-003
 -1.380000000000000E-002   -5.029513172067087E-003
 -1.370000000000000E-002   -5.268286825066516E-003
 -1.360000000000000E-002   -5.517310575584509E-003
 -1.350000000000000E-002   -5.776964878250302E-003
 -1.340000000000000E-002   -6.047643223792161E-003
 -1.330000000000000E-002   -6.329753173187766E-003
 -1.320000000000000E-002   -6.623715998742516E-003
 -1.310000000000000E-002   -6.929968270337645E-003
 -1.300000000000000E-002   -7.248959878222678E-003
 -1.290000000000000E-002   -7.581156043127327E-003
 -1.280000000000000E-002   -7.927036004291520E-003
 -1.270000000000000E-002   -8.287091386389384E-003
 -1.260000000000000E-002   -8.661828433770967E-003
 -1.250000000000000E-002   -9.051765604858989E-003
 -1.240000000000000E-002   -9.457434684627361E-003
 -1.230000000000000E-002   -9.879379599595532E-003
 -1.220000000000000E-002   -1.031815779538901E-002
 -1.210000000000000E-002   -1.077433766578602E-002
 -1.200000000000000E-002   -1.124850167942275E-002
 -1.190000000000000E-002   -1.174124427986624E-002
 -1.180000000000000E-002   -1.225317355801972E-002
 -1.170000000000000E-002   -1.278491333138660E-002
 -1.160000000000000E-002   -1.333710128531260E-002
 -1.150000000000000E-002   -1.391038823150341E-002
 -1.140000000000000E-002   -1.450544398990252E-002
 -1.130000000000000E-002   -1.512295240078233E-002
 -1.120000000000000E-002   -1.576361521897206E-002
 -1.110000000000000E-002   -1.642815083536392E-002
 -1.100000000000000E-002   -1.711729244300709E-002
 -1.090000000000000E-002   -1.783179402181431E-002
 -1.080000000000000E-002   -1.857242159700297E-002
 -1.070000000000000E-002   -1.933996150290398E-002
 -1.060000000000000E-002   -2.013521287927651E-002
 -1.050000000000000E-002   -2.095899358851082E-002
 -1.040000000000000E-002   -2.181213371962202E-002
 -1.030000000000000E-002   -2.269548098953370E-002
 -1.020000000000000E-002   -2.360989119300492E-002
 -1.010000000000000E-002   -2.455624030177532E-002
 -1.000000000000000E-002   -2.553541430140649E-002
 -9.899999999999999E-003   -2.654831179350303E-002
 -9.800000000000000E-003   -2.759584723213646E-002
 -9.699999999999999E-003   -2.867894460349495E-002
 -9.599999999999999E-003   -2.979854455942125E-002
 -9.500000000000000E-003   -3.095559817681333E-002
 -9.399999999999999E-003   -3.215107438128598E-002
 -9.299999999999999E-003   -3.338594962456710E-002
 -9.200000000000000E-003   -3.466121812161151E-002
 -9.099999999999999E-003   -3.597788651328290E-002
 -8.999999999999999E-003   -3.733697422303144E-002
 -8.900000000000000E-003   -3.873951008167201E-002
 -8.799999999999999E-003   -4.018653735755717E-002
 -8.699999999999999E-003   -4.167910963232328E-002
 -8.600000000000000E-003   -4.321828600780433E-002
 -8.499999999999999E-003   -4.480513813322994E-002
 -8.399999999999999E-003   -4.644074490211249E-002
 -8.300000000000000E-003   -4.812618830909086E-002
 -8.199999999999999E-003   -4.986255540373360E-002
 -8.100000000000000E-003   -5.165093850713350E-002
 -8.000000000000000E-003   -5.349243476445874E-002
 -7.899999999999999E-003   -5.538814117954400E-002
 -7.800000000000000E-003   -5.733915803888914E-002
 -7.699999999999999E-003   -5.934658713266312E-002
 -7.599999999999999E-003   -6.141152550398239E-002
 -7.499999999999999E-003   -6.353507537006292E-002
 -7.399999999999999E-003   -6.571834083711277E-002
 -7.299999999999999E-003   -6.796242154274847E-002
 -7.199999999999999E-003   -7.026841151000424E-002
 -7.100000000000000E-003   -7.263740436947466E-002
 -6.999999999999999E-003   -7.507049080756081E-002
 -6.899999999999999E-003   -7.756875162113887E-002
 -6.800000000000000E-003   -8.013325814444901E-002
 -6.699999999999999E-003   -8.276507130056221E-002
 -6.599999999999999E-003   -8.546523852002251E-002
 -6.499999999999999E-003   -8.823480167969668E-002
 -6.399999999999999E-003   -9.107477677596229E-002
 -6.299999999999999E-003   -9.398616139462923E-002
 -6.199999999999999E-003   -9.696994130047915E-002
 -6.100000000000000E-003   -0.100027070061911     
 -5.999999999999999E-003   -0.103158483562516     
 -5.899999999999999E-003   -0.106365094429151     
 -5.800000000000000E-003   -0.109647783341927     
 -5.699999999999999E-003   -0.113007405143513     
 -5.599999999999999E-003   -0.116444782610170     
 -5.499999999999999E-003   -0.119960712590247     
 -5.399999999999999E-003   -0.123555963655921     
 -5.299999999999999E-003   -0.127231260336675     
 -5.199999999999999E-003   -0.130987296439543     
 -5.099999999999999E-003   -0.134824716835737     
 -4.999999999999999E-003   -0.138744144364147     
 -4.899999999999999E-003   -0.142746132977624     
 -4.799999999999999E-003   -0.146831204616641     
 -4.699999999999999E-003   -0.150999834574950     
 -4.599999999999999E-003   -0.155252431081291     
 -4.499999999999999E-003   -0.159589358536994     
 -4.399999999999999E-003   -0.164010924976628     
 -4.299999999999999E-003   -0.168517369883533     
 -4.199999999999999E-003   -0.173108874904913     
 -4.099999999999999E-003   -0.177785545882551     
 -3.999999999999999E-003   -0.182547442903492     
 -3.899999999999999E-003   -0.187394554576714     
 -3.799999999999999E-003   -0.192326771631165     
 -3.699999999999999E-003   -0.197343941712966     
 -3.599999999999999E-003   -0.202445815729208     
 -3.499999999999999E-003   -0.207632079922267     
 -3.399999999999999E-003   -0.212902347855245     
 -3.299999999999999E-003   -0.218256137730225     
 -3.199999999999999E-003   -0.223692871381235     
 -3.099999999999999E-003   -0.229211906532405     
 -2.999999999999999E-003   -0.234812499651419     
 -2.899999999999999E-003   -0.240493798598347     
 -2.799999999999999E-003   -0.246254879534770     
 -2.699999999999999E-003   -0.252094718804064     
 -2.599999999999999E-003   -0.258012151687061     
 -2.499999999999999E-003   -0.264005965946113     
 -2.399999999999999E-003   -0.270074817300410     
 -2.299999999999999E-003   -0.276217225847328     
 -2.199999999999999E-003   -0.282431627583176     
 -2.099999999999999E-003   -0.288716365977851     
 -1.999999999999999E-003   -0.295069641020092     
 -1.899999999999999E-003   -0.301489560102000     
 -1.799999999999999E-003   -0.307974071277966     
 -1.699999999999999E-003   -0.314521022438752     
 -1.599999999999999E-003   -0.321128158323887     
 -1.499999999999999E-003   -0.327793088612025     
 -1.399999999999999E-003   -0.334513317459169     
 -1.299999999999999E-003   -0.341286204511701     
 -1.199999999999999E-003   -0.348108966779052     
 -1.099999999999999E-003   -0.354978707766896     
 -9.999999999999989E-004   -0.361892421434906     
 -8.999999999999990E-004   -0.368846933007838     
 -7.999999999999990E-004   -0.375838972862150     
 -6.999999999999989E-004   -0.382865091884824     
 -5.999999999999990E-004   -0.389921769768207     
 -4.999999999999989E-004   -0.397005303521997     
 -3.999999999999989E-004   -0.404111860845568     
 -2.999999999999989E-004   -0.411237486362595     
 -1.999999999999989E-004   -0.418378060184856     
 -9.999999999999892E-005   -0.425529383927740     
  1.084202172485504E-018   -0.432687040139350     
  1.000000000000011E-004   -0.439846534360268     
  2.000000000000011E-004   -0.447003216957371     
  3.000000000000011E-004   -0.454152300719228     
  4.000000000000011E-004   -0.461288882742747     
  5.000000000000011E-004   -0.468407934138417     
  6.000000000000011E-004   -0.475504274229649     
  7.000000000000011E-004   -0.482572579635039     
  8.000000000000011E-004   -0.489607403813245     
  9.000000000000012E-004   -0.496603200840672     
  1.000000000000001E-003   -0.503554297816459     
  1.100000000000001E-003   -0.510454873107339     
  1.200000000000001E-003   -0.517299014113895     
  1.300000000000001E-003   -0.524080658700874     
  1.400000000000001E-003   -0.530793659371568     
  1.500000000000001E-003   -0.537431755083623     
  1.600000000000001E-003   -0.543988548684897     
  1.700000000000001E-003   -0.550457500463111     
  1.800000000000001E-003   -0.556832076592087     
  1.900000000000001E-003   -0.563105559003461     
  2.000000000000001E-003   -0.569271152105411     
  2.100000000000001E-003   -0.575321967935839     
  2.200000000000001E-003   -0.581251031665660     
  2.300000000000001E-003   -0.587051291810992     
  2.400000000000001E-003   -0.592715595566830     
  2.500000000000001E-003   -0.598236804061456     
  2.600000000000001E-003   -0.603607608144135     
  2.700000000000001E-003   -0.608820682672660     
  2.800000000000001E-003   -0.613868663241915     
  2.900000000000001E-003   -0.618744141534084     
  3.000000000000001E-003   -0.623439578066491     
  3.100000000000001E-003   -0.627947483020716     
  3.200000000000001E-003   -0.632260325585948     
  3.300000000000001E-003   -0.636370537307871     
  3.400000000000001E-003   -0.640270520174302     
  3.500000000000001E-003   -0.643952674371882     
  3.600000000000001E-003   -0.647409396785527     
  3.700000000000001E-003   -0.650633042826826     
  3.800000000000001E-003   -0.653616009471481     
  3.900000000000001E-003   -0.656350794763492     
  4.000000000000001E-003   -0.658829786809683     
  4.100000000000001E-003   -0.661045448042834     
  4.200000000000001E-003   -0.662990352341774     
  4.300000000000001E-003   -0.664657005321059     
  4.400000000000001E-003   -0.666038102744072     
  4.500000000000001E-003   -0.667126297460634     
  4.600000000000002E-003   -0.667914407416026     
  4.700000000000001E-003   -0.668395286128355     
  4.800000000000001E-003   -0.668561887845177     
  4.900000000000002E-003   -0.668407270423249     
  5.000000000000001E-003   -0.667924633700575     
  5.100000000000001E-003   -0.667107259809976     
  5.200000000000001E-003   -0.665948527405604     
  5.300000000000002E-003   -0.664442001155894     
  5.400000000000001E-003   -0.662581377664708     
  5.500000000000001E-003   -0.660360511570420     
  5.600000000000002E-003   -0.657773391000983     
  5.700000000000001E-003   -0.654814256545661     
  5.800000000000001E-003   -0.651477427819976     
  5.900000000000002E-003   -0.647757497596601     
  6.000000000000001E-003   -0.643649278360895     
  6.100000000000001E-003   -0.639147676357243     
  6.200000000000002E-003   -0.634247955390353     
  6.300000000000002E-003   -0.628945505833346     
  6.400000000000001E-003   -0.623235991528760     
  6.500000000000001E-003   -0.617115370972176     
  6.600000000000002E-003   -0.610579724408340     
  6.700000000000001E-003   -0.603625490895018     
  6.800000000000001E-003   -0.596249405588719     
  6.900000000000002E-003   -0.588448396701668     
  7.000000000000001E-003   -0.580219729004511     
  7.100000000000001E-003   -0.571560939313828     
  7.200000000000002E-003   -0.562469919280120     
  7.300000000000002E-003   -0.552944802747135     
  7.400000000000001E-003   -0.542984066109276     
  7.500000000000001E-003   -0.532586488255846     
  7.600000000000002E-003   -0.521751181800856     
  7.700000000000001E-003   -0.510477669935533     
  7.800000000000001E-003   -0.498765716528545     
  7.900000000000001E-003   -0.486615490238848     
  8.000000000000002E-003   -0.474027499853999     
  8.100000000000001E-003   -0.461002606271449     
  8.200000000000001E-003   -0.447542078923054     
  8.300000000000002E-003   -0.433647466323707     
  8.400000000000001E-003   -0.419320769739918     
  8.500000000000002E-003   -0.404564330723077     
  8.600000000000002E-003   -0.389380841510088     
  8.700000000000001E-003   -0.373773450653246     
  8.800000000000002E-003   -0.357745569718051     
  8.900000000000002E-003   -0.341301166047005     
  9.000000000000001E-003   -0.324444451049417     
  9.100000000000002E-003   -0.307180066532355     
  9.200000000000002E-003   -0.289513064061724     
  9.300000000000001E-003   -0.271448912980454     
  9.400000000000002E-003   -0.252993408234861     
  9.500000000000001E-003   -0.234152799453979     
  9.600000000000001E-003   -0.214933705392782     
  9.700000000000002E-003   -0.195343148612095     
  9.800000000000001E-003   -0.175388509256682     
  9.900000000000001E-003   -0.155077607410067     
  1.000000000000000E-002   -0.134418617150087     
  1.010000000000000E-002   -0.113420090423790     
  1.020000000000000E-002   -9.209098174257652E-002
  1.030000000000000E-002   -7.044060124671896E-002
  1.040000000000000E-002   -4.847863358133395E-002
  1.050000000000000E-002   -2.621515175251204E-002
  1.060000000000000E-002   -3.660571484382979E-003
  1.070000000000000E-002    1.917434998725058E-002
  1.080000000000000E-002    4.227849266686103E-002
  1.090000000000000E-002    6.564037515055048E-002
  1.100000000000000E-002    8.924821897598008E-002
  1.110000000000000E-002    0.113089872723970     
  1.120000000000000E-002    0.137152880449135     
  1.130000000000000E-002    0.161424508852188     
  1.140000000000000E-002    0.185891664321853     
  1.150000000000000E-002    0.210540979753004     
  1.160000000000000E-002    0.235358813140487     
  1.170000000000000E-002    0.260331235018942     
  1.180000000000000E-002    0.285444041001644     
  1.190000000000000E-002    0.310682784844417     
  1.200000000000000E-002    0.336032743169013     
  1.210000000000000E-002    0.361479026523927     
  1.220000000000000E-002    0.387006458779779     
  1.230000000000000E-002    0.412599725883472     
  1.240000000000000E-002    0.438243244404671     
  1.250000000000000E-002    0.463921263926824     
  1.260000000000000E-002    0.489617944490739     
  1.270000000000000E-002    0.515317221573607     
  1.280000000000000E-002    0.541002872146708     
  1.290000000000000E-002    0.566658584175553     
  1.300000000000000E-002    0.592267917495254     
  1.310000000000000E-002    0.617814332335480     
  1.320000000000000E-002    0.643281146698578     
  1.330000000000000E-002    0.668651746969760     
  1.340000000000000E-002    0.693909395010411     
  1.350000000000000E-002    0.719037244757969     
  1.360000000000000E-002    0.744018527069140     
  1.370000000000000E-002    0.768836441488492     
  1.380000000000000E-002    0.793474145327734     
  1.390000000000000E-002    0.817914885180568     
  1.400000000000000E-002    0.842141942370244     
  1.410000000000000E-002    0.866138560411197     
  1.420000000000000E-002    0.889888179300587     
  1.430000000000000E-002    0.913374277313536     
  1.440000000000000E-002    0.936580418510121     
  1.450000000000000E-002    0.959490301780814     
  1.460000000000000E-002    0.982087714026051     
  1.470000000000000E-002     1.00435673466612     
  1.480000000000000E-002     1.02628142257132     
  1.490000000000000E-002     1.04784617871632     
  1.500000000000000E-002     1.06903539459422     
  1.510000000000000E-002     1.08983398294127     
  1.520000000000000E-002     1.11022689850631     
  1.530000000000000E-002     1.13019933108758     
  1.540000000000000E-002     1.14973672618096     
  1.550000000000000E-002     1.16882483799470     
  1.560000000000000E-002     1.18744978391742     
  1.570000000000000E-002     1.20559780929010     
  1.580000000000000E-002     1.22325565596823     
  1.590000000000000E-002     1.24041030177645     
  1.600000000000000E-002     1.25704896019038     
  1.610000000000000E-002     1.27315935861852     
  1.620000000000000E-002     1.28872959959683     
  1.630000000000000E-002     1.30374818781449     
  1.640000000000000E-002     1.31820380728448     
  1.650000000000000E-002     1.33208574384790     
  1.660000000000000E-002     1.34538371967753     
  1.670000000000000E-002     1.35808767117432     
  1.680000000000000E-002     1.37018821853303     
  1.690000000000000E-002     1.38167628968703     
  1.700000000000000E-002     1.39254330758188     
  1.710000000000000E-002     1.40278106449609     
  1.720000000000000E-002     1.41238197600341     
  1.730000000000000E-002     1.42133886146508     
  1.740000000000000E-002     1.42964502779389     
  1.750000000000000E-002     1.43729421880131     
  1.760000000000000E-002     1.44428083760555     
  1.770000000000000E-002     1.45059970221571     
  1.780000000000000E-002     1.45624608137843     
  1.790000000000000E-002     1.46121574348397     
  1.800000000000000E-002     1.46550515100205     
  1.810000000000000E-002     1.46911118958499     
  1.820000000000000E-002     1.47203118007719     
  1.830000000000000E-002     1.47426303941464     
  1.840000000000000E-002     1.47580532427310     
  1.850000000000000E-002     1.47665700451863     
  1.860000000000000E-002     1.47681758108098     
  1.870000000000000E-002     1.47628713681202     