 -4.000000000000000E-002    0.000000000000000E+000
 -3.990000000000000E-002    0.000000000000000E+000
 -3.980000000000000E-002    0.000000000000000E+000
 -3.970000000000000E-002    0.000000000000000E+000
 -3.960000000000000E-002    0.000000000000000E+000
 -3.950000000000000E-002    0.000000000000000E+000
 -3.940000000000000E-002   -5.015441995507703E-025
 -3.930000000000000E-002   -5.012064377884634E-024
 -3.920000000000000E-002   -2.505078530651346E-023
 -3.910000000000000E-002   -8.049134427939158E-023
 -3.900000000000000E-002   -1.741771604994759E-022
 -3.890000000000000E-002   -2.213755963553960E-022
 -3.880000000000000E-002    3.869287389752011E-024
 -3.870000000000000E-002    5.621143174949761E-022
 -3.860000000000000E-002   -3.038940288927665E-022
 -3.850000000000000E-002   -1.129647844687308E-020
 -3.840000000000000E-002   -6.043855750085352E-020
 -3.830000000000000E-002   -2.203164118343851E-019
 -3.820000000000000E-002   -6.530882424678287E-019
 -3.810000000000000E-002   -1.681562915355774E-018
 -3.800000000000000E-002   -3.888390280493917E-018
 -3.790000000000000E-002   -8.235569380206086E-018
 -3.780000000000000E-002   -1.617960902927111E-017
 -3.770000000000000E-002   -2.973371200503013E-017
 -3.760000000000000E-002   -5.139949647011330E-017
 -3.750000000000000E-002   -8.386257009113064E-017
 -3.740000000000000E-002   -1.293275846757423E-016
 -3.730000000000000E-002   -1.883715741582046E-016
 -3.720000000000000E-002   -2.582330313035669E-016
 -3.710000000000000E-002   -3.305410359428312E-016
 -3.700000000000000E-002   -3.886315394820334E-016
 -3.690000000000000E-002   -4.047949177067366E-016
 -3.680000000000000E-002   -3.380353820542430E-016
 -3.670000000000000E-002   -1.331674062077663E-016
 -3.660000000000000E-002    2.777216995350823E-016
 -3.650000000000000E-002    9.703117336828621E-016
 -3.640000000000000E-002    2.018529179265863E-015
 -3.630000000000000E-002    3.479710190764106E-015
 -3.620000000000000E-002    5.374276419616245E-015
 -3.610000000000000E-002    7.660642259029883E-015
 -3.600000000000000E-002    1.020721658254937E-014
 -3.590000000000000E-002    1.276468167367124E-014
 -3.580000000000000E-002    1.494306987436514E-014
 -3.570000000000000E-002    1.619929468055974E-014
 -3.560000000000000E-002    1.584150355920540E-014
 -3.550000000000000E-002    1.305661980343584E-014
 -3.540000000000000E-002    6.966528638638425E-015
 -3.530000000000000E-002   -3.283655901624147E-015
 -3.520000000000000E-002   -1.840491251404606E-014
 -3.510000000000000E-002   -3.881508662002308E-014
 -3.500000000000000E-002   -6.446985813279483E-014
 -3.490000000000000E-002   -9.468792690893607E-014
 -3.480000000000000E-002   -1.279893220454248E-013
 -3.470000000000000E-002   -1.619698018978869E-013
 -3.460000000000000E-002   -1.932365304546424E-013
 -3.450000000000000E-002   -2.174302189445588E-013
 -3.440000000000000E-002   -2.293559863632864E-013
 -3.430000000000000E-002   -2.232391231512268E-013
 -3.420000000000000E-002   -1.931130841304114E-013
 -3.410000000000000E-002   -1.333350444302894E-013
 -3.400000000000000E-002   -3.921121218304224E-014
 -3.390000000000000E-002    9.230036980357773E-014
 -3.380000000000000E-002    2.618552349674600E-013
 -3.370000000000000E-002    4.670133685352311E-013
 -3.360000000000000E-002    7.016209664417914E-013
 -3.350000000000000E-002    9.553521294882359E-013
 -3.340000000000000E-002    1.213478215869131E-012
 -3.330000000000000E-002    1.456924820740199E-012
 -3.320000000000000E-002    1.662665515554703E-012
 -3.310000000000000E-002    1.804483417527245E-012
 -3.300000000000000E-002    1.854113595309243E-012
 -3.290000000000000E-002    1.782756627511276E-012
 -3.280000000000000E-002    1.562932715633207E-012
 -3.270000000000000E-002    1.170624028482502E-012
 -3.260000000000000E-002    5.876333447575576E-013
 -3.250000000000000E-002   -1.959316181443901E-013
 -3.240000000000000E-002   -1.179156591190987E-012
 -3.230000000000000E-002   -2.347928411964033E-012
 -3.220000000000000E-002   -3.672797475525572E-012
 -3.210000000000000E-002   -5.107261682825592E-012
 -3.200000000000000E-002   -6.586660065099662E-012
 -3.190000000000000E-002   -8.027887129416171E-012
 -3.180000000000000E-002   -9.330155706486766E-012
 -3.170000000000000E-002   -1.037704340313074E-011
 -3.160000000000000E-002   -1.104005086436528E-011
 -3.150000000000000E-002   -1.118386034690980E-011
 -3.140000000000000E-002   -1.067342086998932E-011
 -3.130000000000000E-002   -9.382868504819073E-012
 -3.120000000000000E-002   -7.206146609108005E-012
 -3.110000000000000E-002   -4.068985422562744E-012
 -3.100000000000000E-002    5.831796086772872E-014
 -3.090000000000000E-002    5.148131485769889E-012
 -3.080000000000000E-002    1.110377207123708E-011
 -3.070000000000000E-002    1.775008805901592E-011
 -3.060000000000000E-002    2.482770530823451E-011
 -3.050000000000000E-002    3.199231392293913E-011
 -3.040000000000000E-002    3.882025209244565E-011
 -3.030000000000000E-002    4.482134543837210E-011
 -3.020000000000000E-002    4.945951516237112E-011
 -3.010000000000000E-002    5.218102912957363E-011
 -3.000000000000000E-002    5.244956896161107E-011
 -2.990000000000000E-002    4.978645785960744E-011
 -2.980000000000000E-002    4.381362252099626E-011
 -2.970000000000000E-002    3.429618869557898E-011
 -2.960000000000000E-002    2.118110919548285E-011
 -2.950000000000000E-002    4.628061983759071E-012
 -2.940000000000000E-002   -1.497100466699427E-011
 -2.930000000000000E-002   -3.698673499326085E-011
 -2.920000000000000E-002   -6.056373154932532E-011
 -2.910000000000000E-002   -8.464922850270914E-011
 -2.900000000000000E-002   -1.080383848173518E-010
 -2.890000000000000E-002   -1.294338578543035E-010
 -2.880000000000000E-002   -1.475157932504033E-010
 -2.870000000000000E-002   -1.610171524062485E-010
 -2.860000000000000E-002   -1.687984351261060E-010
 -2.850000000000000E-002   -1.699156995204805E-010
 -2.840000000000000E-002   -1.636762788889333E-010
 -2.830000000000000E-002   -1.496776354079124E-010
 -2.820000000000000E-002   -1.278267619940828E-010
 -2.810000000000000E-002   -9.833953442910384E-011
 -2.800000000000000E-002   -6.172194418186605E-011
 -2.790000000000000E-002   -1.873738877385900E-011
 -2.780000000000000E-002    2.963412036170718E-011
 -2.770000000000000E-002    8.223770598602593E-011
 -2.760000000000000E-002    1.377792933615108E-010
 -2.750000000000000E-002    1.948491705568913E-010
 -2.740000000000000E-002    2.519294174113282E-010
 -2.730000000000000E-002    3.073844597114383E-010
 -2.720000000000000E-002    3.594374612197477E-010
 -2.710000000000000E-002    4.061392019317484E-010
 -2.700000000000000E-002    4.453394989832039E-010
 -2.690000000000000E-002    4.746735476000952E-010
 -2.680000000000000E-002    4.915767650081542E-010
 -2.670000000000000E-002    4.933406147904929E-010
 -2.660000000000000E-002    4.772190850386699E-010
 -2.650000000000000E-002    4.405905960719991E-010
 -2.640000000000000E-002    3.811733872932803E-010
 -2.630000000000000E-002    2.972849769756351E-010
 -2.620000000000000E-002    1.881283122745068E-010
 -2.610000000000000E-002    5.408011065215451E-011
 -2.600000000000000E-002   -1.030486475130160E-010
 -2.590000000000000E-002   -2.798126663408280E-010
 -2.580000000000000E-002   -4.710250967478735E-010
 -2.570000000000000E-002   -6.697707938379396E-010
 -2.560000000000000E-002   -8.675603711297466E-010
 -2.550000000000000E-002   -1.054633249081623E-009
 -2.540000000000000E-002   -1.220405227812794E-009
 -2.530000000000000E-002   -1.354040807938105E-009
 -2.520000000000000E-002   -1.445116412155994E-009
 -2.510000000000000E-002   -1.484328565603045E-009
 -2.500000000000000E-002   -1.464192739906513E-009
 -2.490000000000000E-002   -1.379673976082400E-009
 -2.480000000000000E-002   -1.228693147756337E-009
 -2.470000000000000E-002   -1.012459858923701E-009
 -2.460000000000000E-002   -7.355960521226340E-010
 -2.450000000000000E-002   -4.060320635681483E-010
 -2.440000000000000E-002   -3.467625702080509E-011
 -2.430000000000000E-002    3.651189780709506E-010
 -2.420000000000000E-002    7.782542234672335E-010
 -2.410000000000000E-002    1.188685240520549E-009
 -2.400000000000000E-002    1.580265052390125E-009
 -2.390000000000000E-002    1.937555684029972E-009
 -2.380000000000000E-002    2.246544372373295E-009
 -2.370000000000000E-002    2.495211752611679E-009
 -2.360000000000000E-002    2.673915227082039E-009
 -2.350000000000000E-002    2.775573795300584E-009
 -2.340000000000000E-002    2.795663672452252E-009
 -2.330000000000000E-002    2.732055280906848E-009
 -2.320000000000000E-002    2.584741258540602E-009
 -2.310000000000000E-002    2.355517366589836E-009
 -2.300000000000000E-002    2.047680286673455E-009
 -2.290000000000000E-002    1.665803374837617E-009
 -2.280000000000000E-002    1.215636632452397E-009
 -2.270000000000000E-002    7.041557492651703E-010
 -2.260000000000000E-002    1.397599073026346E-010
 -2.250000000000000E-002   -4.674107403098678E-010
 -2.240000000000000E-002   -1.105094430800234E-009
 -2.230000000000000E-002   -1.758540746950277E-009
 -2.220000000000000E-002   -2.410248877228836E-009
 -2.210000000000000E-002   -3.039904459558857E-009
 -2.200000000000000E-002   -3.624600176086128E-009
 -2.190000000000000E-002   -4.139403192425617E-009
 -2.180000000000000E-002   -4.558299060161404E-009
 -2.170000000000000E-002   -4.855504484520665E-009
 -2.160000000000000E-002   -5.007092492833686E-009
 -2.150000000000000E-002   -4.992832612953452E-009
 -2.140000000000000E-002   -4.798108920432929E-009
 -2.130000000000000E-002   -4.415746821004040E-009
 -2.120000000000000E-002   -3.847569574715381E-009
 -2.110000000000000E-002   -3.105503406459172E-009
 -2.100000000000000E-002   -2.212073938227595E-009
 -2.090000000000000E-002   -1.200172103437048E-009
 -2.080000000000000E-002   -1.120235698461865E-010
 -2.070000000000000E-002    1.002638944982964E-009
 -2.060000000000000E-002    2.089131762060842E-009
 -2.050000000000000E-002    3.090961385747427E-009
 -2.040000000000000E-002    3.953352562310609E-009
 -2.030000000000000E-002    4.626903444749427E-009
 -2.020000000000000E-002    5.071092494788919E-009
 -2.010000000000000E-002    5.257348971571824E-009
 -2.000000000000000E-002    5.171418318765321E-009
 -1.990000000000000E-002    4.814805071723236E-009
 -1.980000000000000E-002    4.205139557758888E-009
 -1.970000000000000E-002    3.375403293128695E-009
 -1.960000000000000E-002    2.372038686185357E-009
 -1.950000000000000E-002    1.252070958329594E-009
 -1.940000000000000E-002    7.945140318977279E-011
 -1.930000000000000E-002   -1.079089123176442E-009
 -1.920000000000000E-002   -2.158351230469486E-009
 -1.910000000000000E-002   -3.098793612275873E-009
 -1.900000000000000E-002   -3.850146633124794E-009
 -1.890000000000000E-002   -4.374229702949304E-009
 -1.880000000000000E-002   -4.646780301575794E-009
 -1.870000000000000E-002   -4.658180210517026E-009
 -1.860000000000000E-002   -4.413103011093338E-009
 -1.850000000000000E-002   -3.929194973061699E-009
 -1.840000000000000E-002   -3.235016422208076E-009
 -1.830000000000000E-002   -2.367537342637515E-009
 -1.820000000000000E-002   -1.369525712866459E-009
 -1.810000000000000E-002   -2.871635884636650E-010
 -1.800000000000000E-002    8.318189352623418E-010
 -1.790000000000000E-002    1.939280014232485E-009
 -1.780000000000000E-002    2.986999167788560E-009
 -1.770000000000000E-002    3.926247803548231E-009
 -1.760000000000000E-002    4.706839486999109E-009
 -1.750000000000000E-002    5.275965663540184E-009
 -1.740000000000000E-002    5.577314595194542E-009
 -1.730000000000000E-002    5.550996375410423E-009
 -1.720000000000000E-002    5.134817423273161E-009
 -1.710000000000000E-002    4.267361810218381E-009
 -1.700000000000000E-002    2.893304697630542E-009
 -1.690000000000000E-002    9.710627409498992E-010
 -1.680000000000000E-002   -1.517221861995132E-009
 -1.670000000000000E-002   -4.553702999220965E-009
 -1.660000000000000E-002   -8.071400628193985E-009
 -1.650000000000000E-002   -1.194011087472528E-008
 -1.640000000000000E-002   -1.595276485435202E-008
 -1.630000000000000E-002   -1.981314069472989E-008
 -1.620000000000000E-002   -2.312607072031019E-008
 -1.610000000000000E-002   -2.539134985807837E-008
 -1.600000000000000E-002   -2.600184597612964E-008
 -1.590000000000000E-002   -2.424643257999153E-008
 -1.580000000000000E-002   -1.931789611949634E-008
 -1.570000000000000E-002   -1.032554336629169E-008
 -1.560000000000000E-002    3.688253014046913E-009
 -1.550000000000000E-002    2.372865912077041E-008
 -1.540000000000000E-002    5.082732173833026E-008
 -1.530000000000000E-002    8.602154646005666E-008
 -1.520000000000000E-002    1.303347971560835E-007
 -1.510000000000000E-002    1.847607735513292E-007
 -1.500000000000000E-002    2.502514531894989E-007
 -1.490000000000000E-002    3.277106066251556E-007
 -1.480000000000000E-002    4.179932745712081E-007
 -1.470000000000000E-002    5.219104815237596E-007
 -1.460000000000000E-002    6.402389503076573E-007
 -1.450000000000000E-002    7.737348967502714E-007
 -1.440000000000000E-002    9.231498529374642E-007
 -1.430000000000000E-002    1.089246839692932E-006
 -1.420000000000000E-002    1.272815817289972E-006
 -1.410000000000000E-002    1.474685724763510E-006
 -1.400000000000000E-002    1.695731783179898E-006
 -1.390000000000000E-002    1.936877704262464E-006
 -1.380000000000000E-002    2.199091956031180E-006
 -1.370000000000000E-002    2.483378867462460E-006
 -1.360000000000000E-002    2.790764134140602E-006
 -1.350000000000000E-002    3.122278006002496E-006
 -1.340000000000000E-002    3.478937443077117E-006
 -1.330000000000000E-002    3.861729132469305E-006
 -1.320000000000000E-002    4.271595045253833E-006
 -1.310000000000000E-002    4.709426313342128E-006
 -1.300000000000000E-002    5.176061509814873E-006
 -1.290000000000000E-002    5.672296146729417E-006
 -1.280000000000000E-002    6.198899522086606E-006
 -1.270000000000000E-002    6.756642701435224E-006
 -1.260000000000000E-002    7.346332996249036E-006
 -1.250000000000000E-002    7.968853874826601E-006
 -1.240000000000000E-002    8.625209819731130E-006
 -1.230000000000000E-002    9.316571244419047E-006
 -1.220000000000000E-002    1.004431680283923E-005
 -1.210000000000000E-002    1.081007101299058E-005
 -1.200000000000000E-002    1.161573152345566E-005
 -1.190000000000000E-002    1.246349022130103E-005
 -1.180000000000000E-002    1.335584183515173E-005
 -1.170000000000000E-002    1.429557616999186E-005
 -1.160000000000000E-002    1.528577030519424E-005
 -1.150000000000000E-002    1.632975959627782E-005
 -1.140000000000000E-002    1.743111547071665E-005
 -1.130000000000000E-002    1.859360740274580E-005
 -1.120000000000000E-002    1.982117151411533E-005
 -1.110000000000000E-002    2.111788392382281E-005
 -1.100000000000000E-002    2.248793568650524E-005
 -1.090000000000000E-002    2.393562267154348E-005
 -1.080000000000000E-002    2.546533741793978E-005
 -1.070000000000000E-002    2.708158015962044E-005
 -1.060000000000000E-002    2.878898045091822E-005
 -1.050000000000000E-002    3.059232852705237E-005
 -1.040000000000000E-002    3.249661463662112E-005
 -1.030000000000000E-002    3.450707089065637E-005
 -1.020000000000000E-002    3.662921470675826E-005
 -1.010000000000000E-002    3.886890266646924E-005
 -1.000000000000000E-002    4.123236182336453E-005
 -9.899999999999999E-003    4.372622424457031E-005
 -9.800000000000000E-003    4.635755736476574E-005
 -9.699999999999999E-003    4.913387184061338E-005
 -9.599999999999999E-003    5.206312151250457E-005
 -9.500000000000000E-003    5.515369736861739E-005
 -9.399999999999999E-003    5.841440730707388E-005
 -9.299999999999999E-003    6.185446614123691E-005
 -9.200000000000000E-003    6.548345315723275E-005
 -9.099999999999999E-003    6.931130367717904E-005
 -8.999999999999999E-003    7.334828522651977E-005
 -8.900000000000000E-003    7.760498878534897E-005
 -8.799999999999999E-003    8.209232464391100E-005
 -8.699999999999999E-003    8.682153376918606E-005
 -8.600000000000000E-003    9.180423048319323E-005
 -8.499999999999999E-003    9.705241950500747E-005
 -8.399999999999999E-003    1.025785494827985E-004
 -8.300000000000000E-003    1.083955918910028E-004
 -8.199999999999999E-003    1.145170950693638E-004
 -8.100000000000000E-003    1.209572404935512E-004
 -8.000000000000000E-003    1.277309431014169E-004
 -7.899999999999999E-003    1.348538995717565E-004
 -7.800000000000000E-003    1.423426335539429E-004
 -7.699999999999999E-003    1.502145765336577E-004
 -7.599999999999999E-003    1.584880915930903E-004
 -7.499999999999999E-003    1.671824884604734E-004
 -7.399999999999999E-003    1.763180281282262E-004
 -7.299999999999999E-003    1.859159543035378E-004
 -7.199999999999999E-003    1.959984789612441E-004
 -7.100000000000000E-003    2.065887446769190E-004
 -6.999999999999999E-003    2.177107915745750E-004
 -6.899999999999999E-003    2.293896021359070E-004
 -6.800000000000000E-003    2.416510129658812E-004
 -6.699999999999999E-003    2.545217678916560E-004
 -6.599999999999999E-003    2.680294503914846E-004
 -6.499999999999999E-003    2.822025264079935E-004
 -6.399999999999999E-003    2.970703903169729E-004
 -6.299999999999999E-003    3.126633560012901E-004
 -6.199999999999999E-003    3.290127180694632E-004
 -6.100000000000000E-003    3.461508296108565E-004
 -5.999999999999999E-003    3.641111723381962E-004
 -5.899999999999999E-003    3.829284253386758E-004
 -5.800000000000000E-003    4.026385883245366E-004
 -5.699999999999999E-003    4.232790112056640E-004
 -5.599999999999999E-003    4.448885695789403E-004
 -5.499999999999999E-003    4.675076565726312E-004
 -5.399999999999999E-003    4.911783303365653E-004
 -5.299999999999999E-003    5.159443717888283E-004
 -5.199999999999999E-003    5.418513071721517E-004
 -5.099999999999999E-003    5.689465419940554E-004
 -4.999999999999999E-003    5.972792851967255E-004
 -4.899999999999999E-003    6.269005303751966E-004
 -4.799999999999999E-003    6.578631537818232E-004
 -4.699999999999999E-003    6.902218299284289E-004
 -4.599999999999999E-003    7.240330881281631E-004
 -4.499999999999999E-003    7.593550341641175E-004
 -4.399999999999999E-003    7.962476249875805E-004
 -4.299999999999999E-003    8.347724449621378E-004
 -4.199999999999999E-003    8.749926459280999E-004
 -4.099999999999999E-003    9.169728868366020E-004
 -3.999999999999999E-003    9.607795814798725E-004
 -3.899999999999999E-003    1.006480663659004E-003
 -3.799999999999999E-003    1.054145567789608E-003
 -3.699999999999999E-003    1.103845575502896E-003
 -3.599999999999999E-003    1.155653594119257E-003
 -3.499999999999999E-003    1.209644448224843E-003
 -3.399999999999999E-003    1.265894980166390E-003
 -3.299999999999999E-003    1.324483954455595E-003
 -3.199999999999999E-003    1.385492535204855E-003
 -3.099999999999999E-003    1.449004186960656E-003
 -2.999999999999999E-003    1.515104815589505E-003
 -2.899999999999999E-003    1.583882861874109E-003
 -2.799999999999999E-003    1.655429511384379E-003
 -2.699999999999999E-003    1.729838743365073E-003
 -2.599999999999999E-003    1.807207291936908E-003
 -2.499999999999999E-003    1.887634345872285E-003
 -2.399999999999999E-003    1.971222029165125E-003
 -2.299999999999999E-003    2.058075273056218E-003
 -2.199999999999999E-003    2.148301131204612E-003
 -2.099999999999999E-003    2.242009513243359E-003
 -1.999999999999999E-003    2.339312211868873E-003
 -1.899999999999999E-003    2.440323578787422E-003
 -1.799999999999999E-003    2.545159851184605E-003
 -1.699999999999999E-003    2.653939385612592E-003
 -1.599999999999999E-003    2.766782506405478E-003
 -1.499999999999999E-003    2.883811262917463E-003
 -1.399999999999999E-003    3.005149979144055E-003
 -1.299999999999999E-003    3.130924426249531E-003
 -1.199999999999999E-003    3.261262807489407E-003
 -1.099999999999999E-003    3.396295247941932E-003
 -9.999999999999989E-004    3.536153897779038E-003
 -8.999999999999990E-004    3.680973322970959E-003
 -7.999999999999990E-004    3.830890273707639E-003
 -6.999999999999989E-004    3.986044411854106E-003
 -5.999999999999990E-004    4.146576796945529E-003
 -4.999999999999989E-004    4.312631710346402E-003
 -3.999999999999989E-004    4.484355899558290E-003
 -2.999999999999989E-004    4.661897450484493E-003
 -1.999999999999989E-004    4.845407417984610E-003
 -9.999999999999892E-005    5.035038244063250E-003
  1.084202172485504E-018    5.230943847373984E-003
  1.000000000000011E-004    5.433279482200316E-003
  2.000000000000011E-004    5.642201448719316E-003
  3.000000000000011E-004    5.857866882167649E-003
  4.000000000000011E-004    6.080433680166452E-003
  5.000000000000011E-004    6.310059179682766E-003
  6.000000000000011E-004    6.546901059906269E-003
  7.000000000000011E-004    6.791117199387043E-003
  8.000000000000011E-004    7.042864105295151E-003
  9.000000000000012E-004    7.302298842662586E-003
  1.000000000000001E-003    7.569577523367555E-003
  1.100000000000001E-003    7.844856362546717E-003
  1.200000000000001E-003    8.128290120417953E-003
  1.300000000000001E-003    8.420032116659029E-003
  1.400000000000001E-003    8.720236732674162E-003
  1.500000000000001E-003    9.029057033585050E-003
  1.600000000000001E-003    9.346644502302817E-003
  1.700000000000001E-003    9.673149421266920E-003
  1.800000000000001E-003    1.000872150273426E-002
  1.900000000000001E-003    1.035350761859593E-002
  2.000000000000001E-003    1.070765235806855E-002
  2.100000000000001E-003    1.107129787291655E-002
  2.200000000000001E-003    1.144458389621993E-002
  2.300000000000001E-003    1.182764549145417E-002
  2.400000000000001E-003    1.222061400542890E-002
  2.500000000000001E-003    1.262361638324872E-002
  2.600000000000001E-003    1.303677378473327E-002
  2.700000000000001E-003    1.346020258331480E-002
  2.800000000000001E-003    1.389401248553877E-002
  2.900000000000001E-003    1.433830727999219E-002
  3.000000000000001E-003    1.479318365809223E-002
  3.100000000000001E-003    1.525873119799622E-002
  3.200000000000001E-003    1.573503116391154E-002
  3.300000000000001E-003    1.622215800891892E-002
  3.400000000000001E-003    1.672017811831498E-002
  3.500000000000001E-003    1.722914776731886E-002
  3.600000000000001E-003    1.774911676814680E-002
  3.700000000000001E-003    1.828012392339253E-002
  3.800000000000001E-003    1.882220029367718E-002
  3.900000000000001E-003    1.937536315890582E-002
  4.000000000000001E-003    1.993962161437824E-002
  4.100000000000001E-003    2.051497395903951E-002
  4.200000000000001E-003    2.110140338006213E-002
  4.300000000000001E-003    2.169888442472691E-002
  4.400000000000001E-003    2.230737531984181E-002
  4.500000000000001E-003    2.292682259314811E-002
  4.600000000000002E-003    2.355715576472907E-002
  4.700000000000001E-003    2.419829131336524E-002
  4.800000000000001E-003    2.485012871424335E-002
  4.900000000000002E-003    2.551255257308692E-002
  5.000000000000001E-003    2.618542814173649E-002
  5.100000000000001E-003    2.686860489597083E-002
  5.200000000000001E-003    2.756191144153611E-002
  5.300000000000002E-003    2.826515992281688E-002
  5.400000000000001E-003    2.897814271647786E-002
  5.500000000000001E-003    2.970063058454948E-002
  5.600000000000002E-003    3.043237716761323E-002
  5.700000000000001E-003    3.117310783438871E-002
  5.800000000000001E-003    3.192252896721292E-002
  5.900000000000002E-003    3.268032707822890E-002
  6.000000000000001E-003    3.344615974110852E-002
  6.100000000000001E-003    3.421966396187783E-002
  6.200000000000002E-003    3.500044968927359E-002
  6.300000000000002E-003    3.578810219624153E-002
  6.400000000000001E-003    3.658217810751197E-002
  6.500000000000001E-003    3.738220829506986E-002
  6.600000000000002E-003    3.818769720859647E-002
  6.700000000000001E-003    3.899811872388154E-002
  6.800000000000001E-003    3.981291539111539E-002
  6.900000000000002E-003    4.063150814227977E-002
  7.000000000000001E-003    4.145327906274649E-002
  7.100000000000001E-003    4.227758545120481E-002
  7.200000000000002E-003    4.310375626369176E-002
  7.300000000000002E-003    4.393108146229106E-002
  7.400000000000001E-003    4.475882641378997E-002
  7.500000000000001E-003    4.558621810302303E-002
  7.600000000000002E-003    4.641245697155209E-002
  7.700000000000001E-003    4.723670853071851E-002
  7.800000000000001E-003    4.805810376341529E-002
  7.900000000000001E-003    4.887573654033872E-002
  8.000000000000002E-003    4.968867211552116E-002
  8.100000000000001E-003    5.049593631871438E-002
  8.200000000000001E-003    5.129651758627750E-002
  8.300000000000002E-003    5.208936967745693E-002
  8.400000000000001E-003    5.287341157094259E-002
  8.500000000000002E-003    5.364751728155535E-002
  8.600000000000002E-003    5.441053001421869E-002
  8.700000000000001E-003    5.516125227141799E-002
  8.800000000000002E-003    5.589845147716727E-002
  8.900000000000002E-003    5.662085150305556E-002
  9.000000000000001E-003    5.732714298800302E-002
  9.100000000000002E-003    5.801597319317932E-002
  9.200000000000002E-003    5.868595940134137E-002
  9.300000000000001E-003    5.933567365188275E-002
  9.400000000000002E-003    5.996365932561872E-002
  9.500000000000001E-003    6.056841566186238E-002
  9.600000000000001E-003    6.114840877890037E-002
  9.700000000000002E-003    6.170206775260872E-002
  9.800000000000001E-003    6.222779012856357E-002
  9.900000000000001E-003    6.272392751166915E-002
  1.000000000000000E-002    6.318880788473287E-002
  1.010000000000000E-002    6.362071865873241E-002
  1.020000000000000E-002    6.401791296178766E-002
  1.030000000000000E-002    6.437860933263094E-002
  1.040000000000000E-002    6.470099476508877E-002
  1.050000000000000E-002    6.498321619652374E-002
  1.060000000000000E-002    6.522339491430934E-002
  1.070000000000000E-002    6.541961472331516E-002
  1.080000000000000E-002    6.556993623880471E-002
  1.090000000000000E-002    6.567237862001751E-002
  1.100000000000000E-002    6.572493419713910E-002
  1.110000000000000E-002    6.572557442305350E-002
  1.120000000000000E-002    6.567223333691533E-002
  1.130000000000000E-002    6.556282421230394E-002
  1.140000000000000E-002    6.539523640799795E-002
  1.150000000000000E-002    6.516733209865579E-002
  1.160000000000000E-002    6.487695940541183E-002
  1.170000000000000E-002    6.452194099405900E-002
  1.180000000000000E-002    6.410007697487805E-002
  1.190000000000000E-002    6.360916324322193E-002
  1.200000000000000E-002    6.304696764783187E-002
  1.210000000000000E-002    6.241125176154726E-002
  1.220000000000000E-002    6.169976639226740E-002
  1.230000000000000E-002    6.091024677598903E-002
  1.240000000000000E-002    6.004042482932082E-002
  1.250000000000000E-002    5.908802430799514E-002
  1.260000000000000E-002    5.805076703239085E-002
  1.270000000000000E-002    5.692636822356211E-002
  1.280000000000000E-002    5.571254754967146E-002
  1.290000000000000E-002    5.440702434943162E-002
  1.300000000000000E-002    5.300752174696301E-002
  1.310000000000000E-002    5.151177118362080E-002
  1.320000000000000E-002    4.991751535699556E-002
  1.330000000000000E-002    4.822250500624914E-002
  1.340000000000000E-002    4.642450543686953E-002
  1.350000000000000E-002    4.452129836079825E-002
  1.360000000000000E-002    4.251068787882848E-002
  1.370000000000000E-002    4.039049570800454E-002
  1.380000000000000E-002    3.815857284933612E-002
  1.390000000000000E-002    3.581279331994661E-002
  1.400000000000000E-002    3.335106520180453E-002
  1.410000000000000E-002    3.077132777801513E-002
  1.420000000000000E-002    2.807155891120673E-002
  1.430000000000000E-002    2.524977471678683E-002
  1.440000000000000E-002    2.230403411862595E-002
  1.450000000000000E-002    1.923244228813253E-002
  1.460000000000000E-002    1.603315353419820E-002
  1.470000000000000E-002    1.270437701956498E-002
  1.480000000000000E-002    9.244372261985176E-003
  1.490000000000000E-002    5.651461259320419E-003
  1.500000000000000E-002    1.924030123977335E-003
  1.510000000000000E-002   -1.939475187383146E-003
  1.520000000000000E-002   -5.940534672065527E-003
  1.530000000000000E-002   -1.008056439544695E-002
  1.540000000000000E-002   -1.436089919350386E-002
  1.550000000000000E-002   -1.878279709600699E-002
  1.560000000000000E-002   -2.334743879370877E-002
  1.570000000000000E-002   -2.805592172812302E-002
  1.580000000000000E-002   -3.290925359833308E-002
  1.590000000000000E-002   -3.790835120375918E-002
  1.600000000000000E-002   -4.305404314854471E-002
  1.610000000000000E-002   -4.834706209834862E-002
  1.620000000000000E-002   -5.378804555221895E-002
  1.630000000000000E-002   -5.937751291747986E-002
  1.640000000000000E-002   -6.511589239225923E-002
  1.650000000000000E-002   -7.100350734180250E-002
  1.660000000000000E-002   -7.704056544043128E-002
  1.670000000000000E-002   -8.322714988491042E-002
  1.680000000000000E-002   -8.956324360761747E-002
  1.690000000000000E-002   -9.604870034764583E-002
  1.700000000000000E-002   -0.102683250303610     
  1.710000000000000E-002   -0.109466506957668     
  1.720000000000000E-002   -0.116397933140246     
  1.730000000000000E-002   -0.123476886919982     
  1.740000000000000E-002   -0.130702576044155     
  1.750000000000000E-002   -0.138074078991421     
  1.760000000000000E-002   -0.145590333751491     
  1.770000000000000E-002   -0.153250128896490     
  1.780000000000000E-002   -0.161052122443048     
  1.790000000000000E-002   -0.168994831474396     
  1.800000000000000E-002   -0.177076610010240     
  1.810000000000000E-002   -0.185295697998152     
  1.820000000000000E-002   -0.193650141591971     
  1.830000000000000E-002   -0.202137861312899     
  1.840000000000000E-002   -0.210756633338594     
  1.850000000000000E-002   -0.219504052219424     
  1.860000000000000E-002   -0.228377589663003     
  1.870000000000000E-002   -0.237374540659976     