 -4.000000000000000E-002    0.000000000000000E+000
 -3.990000000000000E-002    0.000000000000000E+000
 -3.980000000000000E-002   -5.325199724007701E-013
 -3.970000000000000E-002   -2.722906147990834E-012
 -3.960000000000000E-002   -8.398858744228027E-012
 -3.950000000000000E-002   -2.028103453084211E-011
 -3.940000000000000E-002   -4.227316341000082E-011
 -3.930000000000000E-002   -7.983162974817162E-011
 -3.920000000000000E-002   -1.403371310022725E-010
 -3.910000000000000E-002   -2.333295520756285E-010
 -3.900000000000000E-002   -3.704214405302703E-010
 -3.890000000000000E-002   -5.646960706769000E-010
 -3.880000000000000E-002   -8.294372366874905E-010
 -3.870000000000000E-002   -1.176136120863754E-009
 -3.860000000000000E-002   -1.611863950211879E-009
 -3.850000000000000E-002   -2.136268831939437E-009
 -3.840000000000000E-002   -2.738612493240615E-009
 -3.830000000000000E-002   -3.395374203185397E-009
 -3.820000000000000E-002   -4.068973066577557E-009
 -3.810000000000000E-002   -4.708079602501680E-009
 -3.800000000000000E-002   -5.249787500200595E-009
 -3.790000000000000E-002   -5.623630203128893E-009
 -3.780000000000000E-002   -5.757077515383749E-009
 -3.770000000000000E-002   -5.581815973476235E-009
 -3.760000000000000E-002   -5.039855907131829E-009
 -3.750000000000000E-002   -4.088388211132703E-009
 -3.740000000000000E-002   -2.702402591229033E-009
 -3.730000000000000E-002   -8.743573184866127E-010
 -3.720000000000000E-002    1.389317620383680E-009
 -3.710000000000000E-002    4.074485492332653E-009
 -3.700000000000000E-002    7.167272387583106E-009
 -3.690000000000000E-002    1.066211140088994E-008
 -3.680000000000000E-002    1.456782352384823E-008
 -3.670000000000000E-002    1.890963108602983E-008
 -3.660000000000000E-002    2.372529634286577E-008
 -3.650000000000000E-002    2.905425701857713E-008
 -3.640000000000000E-002    3.491964142716126E-008
 -3.630000000000000E-002    4.130429886611680E-008
 -3.620000000000000E-002    4.812326421478479E-008
 -3.610000000000000E-002    5.519621398749655E-008
 -3.600000000000000E-002    6.222427881603791E-008
 -3.590000000000000E-002    6.877578920422511E-008
 -3.580000000000000E-002    7.428523727136299E-008
 -3.570000000000000E-002    7.806851556558060E-008
 -3.560000000000000E-002    7.935606829607267E-008
 -3.550000000000000E-002    7.734318413845626E-008
 -3.540000000000000E-002    7.125465787051328E-008
 -3.530000000000000E-002    6.041869601284818E-008
 -3.520000000000000E-002    4.434325183801997E-008
 -3.510000000000000E-002    2.278684926050186E-008
 -3.500000000000000E-002   -4.183982297305539E-009
 -3.490000000000000E-002   -3.615791710362908E-008
 -3.480000000000000E-002   -7.236796337828533E-008
 -3.470000000000000E-002   -1.117092269412831E-007
 -3.460000000000000E-002   -1.527849761634832E-007
 -3.450000000000000E-002   -1.939774652975135E-007
 -3.440000000000000E-002   -2.335370426981937E-007
 -3.430000000000000E-002   -2.696810745865876E-007
 -3.420000000000000E-002   -3.006927067277657E-007
 -3.410000000000000E-002   -3.250099375416968E-007
 -3.400000000000000E-002   -3.412963561825529E-007
 -3.390000000000000E-002   -3.484871594316921E-007
 -3.380000000000000E-002   -3.458077236639856E-007
 -3.370000000000000E-002   -3.327647319452950E-007
 -3.360000000000000E-002   -3.091140509710989E-007
 -3.350000000000000E-002   -2.748117242369980E-007
 -3.340000000000000E-002   -2.299574883316042E-007
 -3.330000000000000E-002   -1.747396945595207E-007
 -3.320000000000000E-002   -1.093915251757139E-007
 -3.310000000000000E-002   -3.416552830738051E-008
 -3.300000000000000E-002    5.066854370062742E-008
 -3.290000000000000E-002    1.448013049433755E-007
 -3.280000000000000E-002    2.478388774652439E-007
 -3.270000000000000E-002    3.592411810441650E-007
 -3.260000000000000E-002    4.782516574924716E-007
 -3.250000000000000E-002    6.038283126432008E-007
 -3.240000000000000E-002    7.345862889795539E-007
 -3.230000000000000E-002    8.687620785789916E-007
 -3.220000000000000E-002    1.004206784865658E-006
 -3.210000000000000E-002    1.138413539685293E-006
 -3.200000000000000E-002    1.268581198702259E-006
 -3.190000000000000E-002    1.391712324858721E-006
 -3.180000000000000E-002    1.504741357061891E-006
 -3.170000000000000E-002    1.604685045735669E-006
 -3.160000000000000E-002    1.688806269422671E-006
 -3.150000000000000E-002    1.754781422209092E-006
 -3.140000000000000E-002    1.800859859456799E-006
 -3.130000000000000E-002    1.826007180175880E-006
 -3.120000000000000E-002    1.830022539977366E-006
 -3.110000000000000E-002    1.813623689031199E-006
 -3.100000000000000E-002    1.778494338688555E-006
 -3.090000000000000E-002    1.727291031210582E-006
 -3.080000000000000E-002    1.663609177871159E-006
 -3.070000000000000E-002    1.591908996638413E-006
 -3.060000000000000E-002    1.517405396784930E-006
 -3.050000000000000E-002    1.445927737850748E-006
 -3.040000000000000E-002    1.383756810379540E-006
 -3.030000000000000E-002    1.337449680769801E-006
 -3.020000000000000E-002    1.313663296932141E-006
 -3.010000000000000E-002    1.318989884866979E-006
 -3.000000000000000E-002    1.359815487363037E-006
 -2.990000000000000E-002    1.442215034357588E-006
 -2.980000000000000E-002    1.571891755334097E-006
 -2.970000000000000E-002    1.754168177795617E-006
 -2.960000000000000E-002    1.994029039637252E-006
 -2.950000000000000E-002    2.296213546905401E-006
 -2.940000000000000E-002    2.665345951121803E-006
 -2.930000000000000E-002    3.106091144027014E-006
 -2.920000000000000E-002    3.623315221950218E-006
 -2.910000000000000E-002    4.222229781267997E-006
 -2.900000000000000E-002    4.908499729525535E-006
 -2.890000000000000E-002    5.688295487226899E-006
 -2.880000000000000E-002    6.568275099030654E-006
 -2.870000000000000E-002    7.555493802276108E-006
 -2.860000000000000E-002    8.657240291810267E-006
 -2.850000000000000E-002    9.880816556141861E-006
 -2.840000000000000E-002    1.123328184547461E-005
 -2.830000000000000E-002    1.272119011024813E-005
 -2.820000000000000E-002    1.435035229261935E-005
 -2.810000000000000E-002    1.612566073121115E-005
 -2.800000000000000E-002    1.805099196349968E-005
 -2.790000000000000E-002    2.012922400469797E-005
 -2.780000000000000E-002    2.236235793266313E-005
 -2.770000000000000E-002    2.475174509804919E-005
 -2.760000000000000E-002    2.729840934141051E-005
 -2.750000000000000E-002    3.000339778669684E-005
 -2.740000000000000E-002    3.286815747204923E-005
 -2.730000000000000E-002    3.589486120825351E-005
 -2.720000000000000E-002    3.908664705292086E-005
 -2.710000000000000E-002    4.244773453650894E-005
 -2.700000000000000E-002    4.598339324694911E-005
 -2.690000000000000E-002    4.969975956537213E-005
 -2.680000000000000E-002    5.360350270041252E-005
 -2.670000000000000E-002    5.770139650050745E-005
 -2.660000000000000E-002    6.199983196647981E-005
 -2.650000000000000E-002    6.650433332357042E-005
 -2.640000000000000E-002    7.121916159657547E-005
 -2.630000000000000E-002    7.614704272069858E-005
 -2.620000000000000E-002    8.128910098790464E-005
 -2.610000000000000E-002    8.664500385073816E-005
 -2.600000000000000E-002    9.221334092919428E-005
 -2.590000000000000E-002    9.799223407085740E-005
 -2.580000000000000E-002    1.039800918983035E-004
 -2.570000000000000E-002    1.101764520626040E-004
 -2.560000000000000E-002    1.165828939982006E-004
 -2.550000000000000E-002    1.232038270803899E-004
 -2.540000000000000E-002    1.300471397069838E-004
 -2.530000000000000E-002    1.371246266361563E-004
 -2.520000000000000E-002    1.444521554039169E-004
 -2.510000000000000E-002    1.520495260011975E-004
 -2.500000000000000E-002    1.599400623479159E-004
 -2.490000000000000E-002    1.681499834787761E-004
 -2.480000000000000E-002    1.767076639797983E-004
 -2.470000000000000E-002    1.856427505771782E-004
 -2.460000000000000E-002    1.949853976672780E-004
 -2.450000000000000E-002    2.047655802069197E-004
 -2.440000000000000E-002    2.150126795470235E-004
 -2.430000000000000E-002    2.257552830224424E-004
 -2.420000000000000E-002    2.370212784529280E-004
 -2.410000000000000E-002    2.488382627394333E-004
 -2.400000000000000E-002    2.612341011427312E-004
 -2.390000000000000E-002    2.742377080175102E-004
 -2.380000000000000E-002    2.878798719107982E-004
 -2.370000000000000E-002    3.021939842646160E-004
 -2.360000000000000E-002    3.172166556185375E-004
 -2.350000000000000E-002    3.329882111054178E-004
 -2.340000000000000E-002    3.495527384547097E-004
 -2.330000000000000E-002    3.669579637850152E-004
 -2.320000000000000E-002    3.852548797713430E-004
 -2.310000000000000E-002    4.044970465030398E-004
 -2.300000000000000E-002    4.247398023795025E-004
 -2.290000000000000E-002    4.460394768220745E-004
 -2.280000000000000E-002    4.684525144650341E-004
 -2.270000000000000E-002    4.920348824104991E-004
 -2.260000000000000E-002    5.168416383607158E-004
 -2.250000000000000E-002    5.429268450606638E-004
 -2.240000000000000E-002    5.703436320910420E-004
 -2.230000000000000E-002    5.991445898033230E-004
 -2.220000000000000E-002    6.293825221757126E-004
 -2.210000000000000E-002    6.611111681187155E-004
 -2.200000000000000E-002    6.943861139451221E-004
 -2.190000000000000E-002    7.292656018731917E-004
 -2.180000000000000E-002    7.658111657245562E-004
 -2.170000000000000E-002    8.040881561062704E-004
 -2.160000000000000E-002    8.441659675512883E-004
 -2.150000000000000E-002    8.861179844642987E-004
 -2.140000000000000E-002    9.300212485159888E-004
 -2.130000000000000E-002    9.759560581025210E-004
 -2.120000000000000E-002    1.024005237491903E-003
 -2.110000000000000E-002    1.074253329606014E-003
 -2.100000000000000E-002    1.126786201512926E-003
 -2.090000000000000E-002    1.181690250664155E-003
 -2.080000000000000E-002    1.239052211678281E-003
 -2.070000000000000E-002    1.298958974267235E-003
 -2.060000000000000E-002    1.361497784844966E-003
 -2.050000000000000E-002    1.426756448908729E-003
 -2.040000000000000E-002    1.494824136368409E-003
 -2.030000000000000E-002    1.565792078751173E-003
 -2.020000000000000E-002    1.639754059628473E-003
 -2.010000000000000E-002    1.716807558487178E-003
 -2.000000000000000E-002    1.797054054999427E-003
 -1.990000000000000E-002    1.880599634494693E-003
 -1.980000000000000E-002    1.967555074483060E-003
 -1.970000000000000E-002    2.058035910155636E-003
 -1.960000000000000E-002    2.152162042757469E-003
 -1.950000000000000E-002    2.250057582471146E-003
 -1.940000000000000E-002    2.351850313808274E-003
 -1.930000000000000E-002    2.457670565972894E-003
 -1.920000000000000E-002    2.567651037910868E-003
 -1.910000000000000E-002    2.681926335987688E-003
 -1.900000000000000E-002    2.800632221951256E-003
 -1.890000000000000E-002    2.923905861637966E-003
 -1.880000000000000E-002    3.051885648211368E-003
 -1.870000000000000E-002    3.184711243073985E-003
 -1.860000000000000E-002    3.322524182835621E-003
 -1.850000000000000E-002    3.465468466453946E-003
 -1.840000000000000E-002    3.613690581056584E-003
 -1.830000000000000E-002    3.767340372266042E-003
 -1.820000000000000E-002    3.926571107657140E-003
 -1.810000000000000E-002    4.091539676972868E-003
 -1.800000000000000E-002    4.262406413520182E-003
 -1.790000000000000E-002    4.439334620235131E-003
 -1.780000000000000E-002    4.622490514448353E-003
 -1.770000000000000E-002    4.812041819404677E-003
 -1.760000000000000E-002    5.008157616814778E-003
 -1.750000000000000E-002    5.211007082619428E-003
 -1.740000000000000E-002    5.420757750795572E-003
 -1.730000000000000E-002    5.637576685083168E-003
 -1.720000000000000E-002    5.861628090048775E-003
 -1.710000000000000E-002    6.093073098457890E-003
 -1.700000000000000E-002    6.332069997804703E-003
 -1.690000000000000E-002    6.578774731857887E-003
 -1.680000000000000E-002    6.833339308280474E-003
 -1.670000000000000E-002    7.095913383548647E-003
 -1.660000000000000E-002    7.366644711321189E-003
 -1.650000000000000E-002    7.645677635418465E-003
 -1.640000000000000E-002    7.933154292462807E-003
 -1.630000000000000E-002    8.229214884431285E-003
 -1.620000000000000E-002    8.533996288075621E-003
 -1.610000000000000E-002    8.847631511861851E-003
 -1.600000000000000E-002    9.170248793851719E-003
 -1.590000000000000E-002    9.501971370637744E-003
 -1.580000000000000E-002    9.842914533161225E-003
 -1.570000000000000E-002    1.019318634805298E-002
 -1.560000000000000E-002    1.055288561876176E-002
 -1.550000000000000E-002    1.092209931650429E-002
 -1.540000000000000E-002    1.130090554141058E-002
 -1.530000000000000E-002    1.168936924727983E-002
 -1.520000000000000E-002    1.208754485808920E-002
 -1.510000000000000E-002    1.249547342115025E-002
 -1.500000000000000E-002    1.291318550390591E-002
 -1.490000000000000E-002    1.334069971194910E-002
 -1.480000000000000E-002    1.377802287894309E-002
 -1.470000000000000E-002    1.422515020627411E-002
 -1.460000000000000E-002    1.468206435557392E-002
 -1.450000000000000E-002    1.514873508336506E-002
 -1.440000000000000E-002    1.562511764767845E-002
 -1.430000000000000E-002    1.611115111483067E-002
 -1.420000000000000E-002    1.660675686473841E-002
 -1.410000000000000E-002    1.711183562477556E-002
 -1.400000000000000E-002    1.762626700073931E-002
 -1.390000000000000E-002    1.814990536575224E-002
 -1.380000000000000E-002    1.868257791662583E-002
 -1.370000000000000E-002    1.922408495958213E-002
 -1.360000000000000E-002    1.977419709332719E-002
 -1.350000000000000E-002    2.033265507744992E-002
 -1.340000000000000E-002    2.089916769446213E-002
 -1.330000000000000E-002    2.147341353937688E-002
 -1.320000000000000E-002    2.205504003128854E-002
 -1.310000000000000E-002    2.264366211591966E-002
 -1.300000000000000E-002    2.323886595498144E-002
 -1.290000000000000E-002    2.384020507822536E-002
 -1.280000000000000E-002    2.444719983041389E-002
 -1.270000000000000E-002    2.505933626916839E-002
 -1.260000000000000E-002    2.567606521850979E-002
 -1.250000000000000E-002    2.629679778470152E-002
 -1.240000000000000E-002    2.692090463447781E-002
 -1.230000000000000E-002    2.754770983053025E-002
 -1.220000000000000E-002    2.817649073224232E-002
 -1.210000000000000E-002    2.880647487251451E-002
 -1.200000000000000E-002    2.943683338702247E-002
 -1.190000000000000E-002    3.006668546505368E-002
 -1.180000000000000E-002    3.069508802232026E-002
 -1.170000000000000E-002    3.132104075222657E-002
 -1.160000000000000E-002    3.194348420331429E-002
 -1.150000000000000E-002    3.256129948005099E-002
 -1.140000000000000E-002    3.317330803099276E-002
 -1.130000000000000E-002    3.377827329855050E-002
 -1.120000000000000E-002    3.437489357752378E-002
 -1.110000000000000E-002    3.496181346966943E-002
 -1.100000000000000E-002    3.553761348120207E-002
 -1.090000000000000E-002    3.610080807964600E-002
 -1.080000000000000E-002    3.664985320212591E-002
 -1.070000000000000E-002    3.718312866865228E-002
 -1.060000000000000E-002    3.769894856240088E-002
 -1.050000000000000E-002    3.819555074778286E-002
 -1.040000000000000E-002    3.867109308470114E-002
 -1.030000000000000E-002    3.912365416705110E-002
 -1.020000000000000E-002    3.955122584535531E-002
 -1.010000000000000E-002    3.995171370307931E-002
 -1.000000000000000E-002    4.032293979244975E-002
 -9.899999999999999E-003    4.066263067403404E-002
 -9.800000000000000E-003    4.096842596908856E-002
 -9.699999999999999E-003    4.123788472432444E-002
 -9.599999999999999E-003    4.146847201078367E-002
 -9.500000000000000E-003    4.165756939234985E-002
 -9.399999999999999E-003    4.180246793212297E-002
 -9.299999999999999E-003    4.190038316361749E-002
 -9.200000000000000E-003    4.194844446222504E-002
 -9.099999999999999E-003    4.194368616672556E-002
 -8.999999999999999E-003    4.188306755388773E-002
 -8.900000000000000E-003    4.176344942938354E-002
 -8.799999999999999E-003    4.158160700980098E-002
 -8.699999999999999E-003    4.133421708439336E-002
 -8.600000000000000E-003    4.101786403067858E-002
 -8.499999999999999E-003    4.062902910376944E-002
 -8.399999999999999E-003    4.016409759849779E-002
 -8.300000000000000E-003    3.961935329530718E-002
 -8.199999999999999E-003    3.899097837496793E-002
 -8.100000000000000E-003    3.827505713946525E-002
 -8.000000000000000E-003    3.746757503903959E-002
 -7.899999999999999E-003    3.656442454518121E-002
 -7.800000000000000E-003    3.556140006943048E-002
 -7.699999999999999E-003    3.445421554583925E-002
 -7.599999999999999E-003    3.323849456783090E-002
 -7.499999999999999E-003    3.190977906802761E-002
 -7.399999999999999E-003    3.046352720301935E-002
 -7.299999999999999E-003    2.889511542009619E-002
 -7.199999999999999E-003    2.719984566380119E-002
 -7.100000000000000E-003    2.537293753990803E-002
 -6.999999999999999E-003    2.340953586077044E-002
 -6.899999999999999E-003    2.130470733920092E-002
 -6.800000000000000E-003    1.905344018069479E-002
 -6.699999999999999E-003    1.665064681756836E-002
 -6.599999999999999E-003    1.409116680656179E-002
 -6.499999999999999E-003    1.136976452538246E-002
 -6.399999999999999E-003    8.481138926154385E-003
 -6.299999999999999E-003    5.419922066412400E-003
 -6.199999999999999E-003    2.180689369846512E-003
 -6.100000000000000E-003   -1.242037083796716E-003
 -5.999999999999999E-003   -4.853782387220083E-003
 -5.899999999999999E-003   -8.660110263229395E-003
 -5.800000000000000E-003   -1.266661816689581E-002
 -5.699999999999999E-003   -1.687892967242945E-002
 -5.599999999999999E-003   -2.130268824429628E-002
 -5.499999999999999E-003   -2.594355198427843E-002
 -5.399999999999999E-003   -3.080718860187040E-002
 -5.299999999999999E-003   -3.589926800433160E-002
 -5.199999999999999E-003   -4.122546047283322E-002
 -5.099999999999999E-003   -4.679143028339297E-002
 -4.999999999999999E-003   -5.260283041772877E-002
 -4.899999999999999E-003   -5.866529754672747E-002
 -4.799999999999999E-003   -6.498444642374827E-002
 -4.699999999999999E-003   -7.156586056126873E-002
 -4.599999999999999E-003   -7.841509124969244E-002
 -4.499999999999999E-003   -8.553763536128663E-002
 -4.399999999999999E-003   -9.293893922097360E-002
 -4.299999999999999E-003   -0.100624383459640     
 -4.199999999999999E-003   -0.108599278086952     
 -4.099999999999999E-003   -0.116868833074816     
 -3.999999999999999E-003   -0.125438166863880     
 -3.899999999999999E-003   -0.134312295095243     
 -3.799999999999999E-003   -0.143496111843306     
 -3.699999999999999E-003   -0.152994378929141     
 -3.599999999999999E-003   -0.162811708669628     
 -3.499999999999999E-003   -0.172952585295635     
 -3.399999999999999E-003   -0.183421318647440     
 -3.299999999999999E-003   -0.194222050925853     
 -3.199999999999999E-003   -0.205358776463476     
 -3.099999999999999E-003   -0.216835272067682     
 -2.999999999999999E-003   -0.228655115643180     
 -2.899999999999999E-003   -0.240821704087112     
 -2.799999999999999E-003   -0.253338208296122     
 -2.699999999999999E-003   -0.266207559299998     
 -2.599999999999999E-003   -0.279432467971094     
 -2.499999999999999E-003   -0.293015346719648     
 -2.399999999999999E-003   -0.306958415818685     
 -2.299999999999999E-003   -0.321263558278785     
 -2.199999999999999E-003   -0.335932384546941     
 -2.099999999999999E-003   -0.350966181651631     
 -1.999999999999999E-003   -0.366365955591242     
 -1.899999999999999E-003   -0.382132379138624     
 -1.799999999999999E-003   -0.398265750607071     
 -1.699999999999999E-003   -0.414766052659795     
 -1.599999999999999E-003   -0.431632866407608     
 -1.499999999999999E-003   -0.448865437901070     
 -1.399999999999999E-003   -0.466462617027302     
 -1.299999999999999E-003   -0.484422887394466     
 -1.199999999999999E-003   -0.502744278746478     
 -1.099999999999999E-003   -0.521424443009923     
 -9.999999999999989E-004   -0.540460605197175     
 -8.999999999999990E-004   -0.559849554679418     
 -7.999999999999990E-004   -0.579587652671659     
 -6.999999999999989E-004   -0.599670850036659     
 -5.999999999999990E-004   -0.620094538159023     
 -4.999999999999989E-004   -0.640853692808733     
 -3.999999999999989E-004   -0.661942817492002     
 -2.999999999999989E-004   -0.683355907798715     
 -1.999999999999989E-004   -0.705086433762950     
 -9.999999999999892E-005   -0.727127409018642     
  1.084202172485504E-018   -0.749471311617850     
  1.000000000000011E-004   -0.772110154897247     
  2.000000000000011E-004   -0.795035318233741     
  3.000000000000011E-004   -0.818237692648334     
  4.000000000000011E-004   -0.841707658881571     
  5.000000000000011E-004   -0.865435032968651     
  6.000000000000011E-004   -0.889409128494819     
  7.000000000000011E-004   -0.913618664438995     
  8.000000000000011E-004   -0.938051878053514     
  9.000000000000012E-004   -0.962696383064148     
  1.000000000000001E-003   -0.987539337780792     
  1.100000000000001E-003    -1.01256724619391     
  1.200000000000001E-003    -1.03776613199922     
  1.300000000000001E-003    -1.06312145506810     
  1.400000000000001E-003    -1.08861804851431     
  1.500000000000001E-003    -1.11424037934858     
  1.600000000000001E-003    -1.13997214670021     
  1.700000000000001E-003    -1.16579671753504     
  1.800000000000001E-003    -1.19169672173739     
  1.900000000000001E-003    -1.21765450794275     
  2.000000000000001E-003    -1.24365163392116     
  2.100000000000001E-003    -1.26966925746231     
  2.200000000000001E-003    -1.29568795953441     
  2.300000000000001E-003    -1.32168796207344     
  2.400000000000001E-003    -1.34764888699797     
  2.500000000000001E-003    -1.37354991003356     
  2.600000000000001E-003    -1.39936966605152     
  2.700000000000001E-003    -1.42508646465482     
  2.800000000000001E-003    -1.45067810497700     
  2.900000000000001E-003    -1.47612199105671     
  3.000000000000001E-003    -1.50139494800499     
  3.100000000000001E-003    -1.52647368396950     
  3.200000000000001E-003    -1.55133439529069     
  3.300000000000001E-003    -1.57595280583729     
  3.400000000000001E-003    -1.60030442541679     
  3.500000000000001E-003    -1.62436442774910     
  3.600000000000001E-003    -1.64810768131146     
  3.700000000000001E-003    -1.67150877818212     
  3.800000000000001E-003    -1.69454189229207     
  3.900000000000001E-003    -1.71718108247506     
  4.000000000000001E-003    -1.73940023395231     
  4.100000000000001E-003    -1.76117290515909     
  4.200000000000001E-003    -1.78247249579729     
  4.300000000000001E-003    -1.80327244374061     
  4.400000000000001E-003    -1.82354583328564     
  4.500000000000001E-003    -1.84326586467801     
  4.600000000000002E-003    -1.86240550733297     
  4.700000000000001E-003    -1.88093780679789     
  4.800000000000001E-003    -1.89883580775813     
  4.900000000000002E-003    -1.91607258309764     
  5.000000000000001E-003    -1.93262110932334     
  5.100000000000001E-003    -1.94845459068131     
  5.200000000000001E-003    -1.96354635123452     
  5.300000000000002E-003    -1.97786980291724     
  5.400000000000001E-003    -1.99139864257621     
  5.500000000000001E-003    -2.00410664807880     
  5.600000000000002E-003    -2.01596782206193     
  5.700000000000001E-003    -2.02695653016797     
  5.800000000000001E-003    -2.03704747044538     
  5.900000000000002E-003    -2.04621556883816     
  6.000000000000001E-003    -2.05443625608248     
  6.100000000000001E-003    -2.06168505781177     
  6.200000000000002E-003    -2.06793827170908     
  6.300000000000002E-003    -2.07317265666756     
  6.400000000000001E-003    -2.07736538771761     
  6.500000000000001E-003    -2.08049417235366     
  6.600000000000002E-003    -2.08253733117520     
  6.700000000000001E-003    -2.08347393843296     
  6.800000000000001E-003    -2.08328349316730     
  6.900000000000002E-003    -2.08194595718737     
  7.000000000000001E-003    -2.07944264528110     
  7.100000000000001E-003    -2.07575502452334     
  7.200000000000002E-003    -2.07086558887325     
  7.300000000000002E-003    -2.06475767581171     
  7.400000000000001E-003    -2.05741557188794     
  7.500000000000001E-003    -2.04882384538277     
  7.600000000000002E-003    -2.03896848791584     
  7.700000000000001E-003    -2.02783633939383     
  7.800000000000001E-003    -2.01541493623159     
  7.900000000000001E-003    -2.00169306279378     
  8.000000000000002E-003    -1.98666026599968     
  8.100000000000001E-003    -1.97030742983473     
  8.200000000000001E-003    -1.95262620632654     
  8.300000000000002E-003    -1.93360936002276     
  8.400000000000001E-003    -1.91325082966639     
  8.500000000000002E-003    -1.89154571420686     
  8.600000000000002E-003    -1.86849020289806     
  8.700000000000001E-003    -1.84408167438472     
  8.800000000000002E-003    -1.81831851535657     
  8.900000000000002E-003    -1.79120054351496     
  9.000000000000001E-003    -1.76272868900129     
  9.100000000000002E-003    -1.73290503941674     
  9.200000000000002E-003    -1.70173297367821     
  9.300000000000001E-003    -1.66921709195826     
  9.400000000000002E-003    -1.63536317651861     
  9.500000000000001E-003    -1.60017841602018     
  9.600000000000001E-003    -1.56367114939082     
  9.700000000000002E-003    -1.52585099965952     
  9.800000000000001E-003    -1.48672883959186     
  9.900000000000001E-003    -1.44631694648000     
  1.000000000000000E-002    -1.40462875812429     
  1.010000000000000E-002    -1.36167909586665     
  1.020000000000000E-002    -1.31748398534857     
  1.030000000000000E-002    -1.27206071318664     
  1.040000000000000E-002    -1.22542792008384     
  1.050000000000000E-002    -1.17760546600137     
  1.060000000000000E-002    -1.12861443297900     
  1.070000000000000E-002    -1.07847722420405     
  1.080000000000000E-002    -1.02721732437679     
  1.090000000000000E-002   -0.974859584769312     
  1.100000000000000E-002   -0.921429980681311     
  1.110000000000000E-002   -0.866955660736005     
  1.120000000000000E-002   -0.811464996461226     
  1.130000000000000E-002   -0.754987353951949     
  1.140000000000000E-002   -0.697553405547388     
  1.150000000000000E-002   -0.639194758454428     
  1.160000000000000E-002   -0.579944131875509     
  1.170000000000000E-002   -0.519835363066542     
  1.180000000000000E-002   -0.458903144006864     
  1.190000000000000E-002   -0.397183317724493     
  1.200000000000000E-002   -0.334712633962476     
  1.210000000000000E-002   -0.271528766096411     
  1.220000000000000E-002   -0.207670270337359     
  1.230000000000000E-002   -0.143176594435102     
  1.240000000000000E-002   -7.808799581921651E-002
  1.250000000000000E-002   -1.244551000076884E-002
  1.260000000000000E-002    5.370906825502229E-002
  1.270000000000000E-002    0.120333228053628     
  1.280000000000000E-002    0.187383835198544     
  1.290000000000000E-002    0.254817112264604     
  1.300000000000000E-002    0.322588694148231     
  1.310000000000000E-002    0.390653717187374     
  1.320000000000000E-002    0.458966802454224     
  1.330000000000000E-002    0.527482131064262     
  1.340000000000000E-002    0.596153525491634     
  1.350000000000000E-002    0.664934390730458     
  1.360000000000000E-002    0.733777901367452     
  1.370000000000000E-002    0.802636901394486     
  1.380000000000000E-002    0.871464013961116     
  1.390000000000000E-002    0.940211734805091     
  1.400000000000000E-002     1.00883245770947     
  1.410000000000000E-002     1.07727844384685     
  1.420000000000000E-002     1.14550197279333     
  1.430000000000000E-002     1.21345534355473     
  1.440000000000000E-002     1.28109102370347     
  1.450000000000000E-002     1.34836143434360     
  1.460000000000000E-002     1.41521924786111     
  1.470000000000000E-002     1.48161755062252     
  1.480000000000000E-002     1.54750944399413     
  1.490000000000000E-002     1.61284855481704     
  1.500000000000000E-002     1.67758880943899     
  1.510000000000000E-002     1.74168457449791     
  1.520000000000000E-002     1.80509071053347     
  1.530000000000000E-002     1.86776267676606     
  1.540000000000000E-002     1.92965644258460     
  1.550000000000000E-002     1.99072854574119     
  1.560000000000000E-002     2.05093623521265     
  1.570000000000000E-002     2.11023761619948     
  1.580000000000000E-002     2.16859114995681     
  1.590000000000000E-002     2.22595636874733     
  1.600000000000000E-002     2.28229368121927     
  1.610000000000000E-002     2.33756397744316     
  1.620000000000000E-002     2.39172951506597     
  1.630000000000000E-002     2.44475337355470     
  1.640000000000000E-002     2.49659958714897     
  1.650000000000000E-002     2.54723310095637     
  1.660000000000000E-002     2.59662008316185     
  1.670000000000000E-002     2.64472770607198     
  1.680000000000000E-002     2.69152443850304     
  1.690000000000000E-002     2.73697969942883     
  1.700000000000000E-002     2.78106426163328     
  1.710000000000000E-002     2.82374987036547     
  1.720000000000000E-002     2.86500984039087     
  1.730000000000000E-002     2.90481876909137     
  1.740000000000000E-002     2.94315196751520     
  1.750000000000000E-002     2.97998663880858     
  1.760000000000000E-002     3.01530124145687     
  1.770000000000000E-002     3.04907515948479     
  1.780000000000000E-002     3.08128954952942     
  1.790000000000000E-002     3.11192690590958     
  1.800000000000000E-002     3.14097081961366     
  1.810000000000000E-002     3.16840668307234     
  1.820000000000000E-002     3.19422079638487     
  1.830000000000000E-002     3.21840132482168     
  1.840000000000000E-002     3.24093767247446     
  1.850000000000000E-002     3.26182078158172     
  1.860000000000000E-002     3.28104280541770     
  1.870000000000000E-002     3.29859764101968     