 -4.000000000000000E-002    0.000000000000000E+000
 -3.990000000000000E-002    0.000000000000000E+000
 -3.980000000000000E-002    0.000000000000000E+000
 -3.970000000000000E-002   -2.821523770328398E-015
 -3.960000000000000E-002   -1.812050955755283E-014
 -3.950000000000000E-002   -6.466397348430509E-014
 -3.940000000000000E-002   -1.676605347593081E-013
 -3.930000000000000E-002   -3.489045980052362E-013
 -3.920000000000000E-002   -6.096081318218440E-013
 -3.910000000000000E-002   -9.086004708737998E-013
 -3.900000000000000E-002   -1.141364311915750E-012
 -3.890000000000000E-002   -1.127328548524943E-012
 -3.880000000000000E-002   -6.132227234955912E-013
 -3.870000000000000E-002    7.013369180320931E-013
 -3.860000000000000E-002    3.113546454142463E-012
 -3.850000000000000E-002    6.845184684350597E-012
 -3.840000000000000E-002    1.195718258237053E-011
 -3.830000000000000E-002    1.826509792505296E-011
 -3.820000000000000E-002    2.527309662572693E-011
 -3.810000000000000E-002    3.214453063258458E-011
 -3.800000000000000E-002    3.772401736556690E-011
 -3.790000000000000E-002    4.061907838081464E-011
 -3.780000000000000E-002    3.933963841036532E-011
 -3.770000000000000E-002    3.248254278340754E-011
 -3.760000000000000E-002    1.893780094912856E-011
 -3.750000000000000E-002   -1.914504205837651E-012
 -3.740000000000000E-002   -3.005031820349489E-011
 -3.730000000000000E-002   -6.472126950459355E-011
 -3.720000000000000E-002   -1.044683099793076E-010
 -3.710000000000000E-002   -1.472345495290766E-010
 -3.700000000000000E-002   -1.905635187976665E-010
 -3.690000000000000E-002   -2.318501667719513E-010
 -3.680000000000000E-002   -2.685963859814211E-010
 -3.670000000000000E-002   -2.986148621062853E-010
 -3.660000000000000E-002   -3.201266519477361E-010
 -3.650000000000000E-002   -3.317121331952419E-010
 -3.640000000000000E-002   -3.320995978923689E-010
 -3.630000000000000E-002   -3.198093076353700E-010
 -3.620000000000000E-002   -2.927082363032238E-010
 -3.610000000000000E-002   -2.475657073771254E-010
 -3.600000000000000E-002   -1.797254466372893E-010
 -3.590000000000000E-002   -8.301947468289102E-011
 -3.580000000000000E-002    4.996243233557978E-011
 -3.570000000000000E-002    2.271682084298114E-010
 -3.560000000000000E-002    4.559208446960362E-010
 -3.550000000000000E-002    7.413477756435135E-010
 -3.540000000000000E-002    1.084532222439437E-009
 -3.530000000000000E-002    1.480595539000657E-009
 -3.520000000000000E-002    1.916976735148008E-009
 -3.510000000000000E-002    2.372210934859509E-009
 -3.500000000000000E-002    2.815496492912647E-009
 -3.490000000000000E-002    3.207294428465685E-009
 -3.480000000000000E-002    3.501103163045239E-009
 -3.470000000000000E-002    3.646427011394107E-009
 -3.460000000000000E-002    3.592797598555915E-009
 -3.450000000000000E-002    3.294553508052164E-009
 -3.440000000000000E-002    2.715943268109362E-009
 -3.430000000000000E-002    1.836015616805548E-009
 -3.420000000000000E-002    6.527225466221973E-010
 -3.410000000000000E-002   -8.143085360736212E-010
 -3.400000000000000E-002   -2.522775701004699E-009
 -3.390000000000000E-002   -4.408735326837234E-009
 -3.380000000000000E-002   -6.389708886803197E-009
 -3.370000000000000E-002   -8.369644401469327E-009
 -3.360000000000000E-002   -1.024527498247838E-008
 -3.350000000000000E-002   -1.191320726866277E-008
 -3.340000000000000E-002   -1.327695179532569E-008
 -3.330000000000000E-002   -1.425306637375146E-008
 -3.320000000000000E-002   -1.477568079163232E-008
 -3.310000000000000E-002   -1.479885156474442E-008
 -3.300000000000000E-002   -1.429649368855608E-008
 -3.290000000000000E-002   -1.325997916353919E-008
 -3.280000000000000E-002   -1.169385591688708E-008
 -3.270000000000000E-002   -9.610478522275436E-009
 -3.260000000000000E-002   -7.024555820269588E-009
 -3.250000000000000E-002   -3.948775237269583E-009
 -3.240000000000000E-002   -3.915578300853279E-010
 -3.230000000000000E-002    3.642174458906440E-009
 -3.220000000000000E-002    8.146761991430100E-009
 -3.210000000000000E-002    1.310811271344036E-008
 -3.200000000000000E-002    1.849314220130441E-008
 -3.190000000000000E-002    2.423749621810647E-008
 -3.180000000000000E-002    3.023316257587537E-008
 -3.170000000000000E-002    3.631789583900152E-008
 -3.160000000000000E-002    4.226844441004484E-008
 -3.150000000000000E-002    4.779940414855992E-008
 -3.140000000000000E-002    5.256910533898367E-008
 -3.130000000000000E-002    5.619320365215066E-008
 -3.120000000000000E-002    5.826589959904810E-008
 -3.110000000000000E-002    5.838766733189381E-008
 -3.100000000000000E-002    5.619760626783219E-008
 -3.090000000000000E-002    5.140765367915278E-008
 -3.080000000000000E-002    4.383547363741466E-008
 -3.070000000000000E-002    3.343260167685588E-008
 -3.060000000000000E-002    2.030465620589200E-008
 -3.050000000000000E-002    4.720974515721042E-009
 -3.040000000000000E-002   -1.288803641612332E-008
 -3.030000000000000E-002   -3.194641456397430E-008
 -3.020000000000000E-002   -5.176029078000848E-008
 -3.010000000000000E-002   -7.155564104353686E-008
 -3.000000000000000E-002   -9.052309088728220E-008
 -2.990000000000000E-002   -1.078657955980341E-007
 -2.980000000000000E-002   -1.228461930096293E-007
 -2.970000000000000E-002   -1.348272687809049E-007
 -2.960000000000000E-002   -1.433047712583879E-007
 -2.950000000000000E-002   -1.479276183583136E-007
 -2.940000000000000E-002   -1.485050609935140E-007
 -2.930000000000000E-002   -1.450007094064492E-007
 -2.920000000000000E-002   -1.375149057500217E-007
 -2.910000000000000E-002   -1.262582466635037E-007
 -2.900000000000000E-002   -1.115200320177191E-007
 -2.890000000000000E-002   -9.363591967021314E-008
 -2.880000000000000E-002   -7.295898757518604E-008
 -2.870000000000000E-002   -4.983789280957252E-008
 -2.860000000000000E-002   -2.460484130843504E-008
 -2.850000000000000E-002    2.425456162890350E-009
 -2.840000000000000E-002    3.094596183472407E-008
 -2.830000000000000E-002    6.063859016730128E-008
 -2.820000000000000E-002    9.114956428676034E-008
 -2.810000000000000E-002    1.220631404043559E-007
 -2.800000000000000E-002    1.528781143535345E-007
 -2.790000000000000E-002    1.829916655970900E-007
 -2.780000000000000E-002    2.116943152635417E-007
 -2.770000000000000E-002    2.381785437497369E-007
 -2.760000000000000E-002    2.615620811817587E-007
 -2.750000000000000E-002    2.809253111399003E-007
 -2.740000000000000E-002    2.953601964279507E-007
 -2.730000000000000E-002    3.040269086140301E-007
 -2.720000000000000E-002    3.062131383438329E-007
 -2.710000000000000E-002    3.013904955908083E-007
 -2.700000000000000E-002    2.892624732398176E-007
 -2.690000000000000E-002    2.697992374921465E-007
 -2.680000000000000E-002    2.432554074417378E-007
 -2.670000000000000E-002    2.101689516986034E-007
 -2.660000000000000E-002    1.713408121084440E-007
 -2.650000000000000E-002    1.277970748363875E-007
 -2.640000000000000E-002    8.073670673541347E-008
 -2.630000000000000E-002    3.146981662453784E-008
 -2.620000000000000E-002   -1.864841094940890E-008
 -2.610000000000000E-002   -6.828226456243395E-008
 -2.600000000000000E-002   -1.161731363864753E-007
 -2.590000000000000E-002   -1.611858109293522E-007
 -2.580000000000000E-002   -2.023398718628611E-007
 -2.570000000000000E-002   -2.388246718671389E-007
 -2.560000000000000E-002   -2.699975030848013E-007
 -2.550000000000000E-002   -2.953665721702972E-007
 -2.540000000000000E-002   -3.145611191142015E-007
 -2.530000000000000E-002   -3.272926910662836E-007
 -2.520000000000000E-002   -3.333115890812801E-007
 -2.510000000000000E-002   -3.323631087419406E-007
 -2.500000000000000E-002   -3.241470870847521E-007
 -2.490000000000000E-002   -3.082852553520942E-007
 -2.480000000000000E-002   -2.842977898699500E-007
 -2.470000000000000E-002   -2.515914676178090E-007
 -2.460000000000000E-002   -2.094597082216239E-007
 -2.450000000000000E-002   -1.570938371517146E-007
 -2.440000000000000E-002   -9.360410186819836E-008
 -2.430000000000000E-002   -1.804851025527187E-008
 -2.420000000000000E-002    7.053273886154355E-008
 -2.410000000000000E-002    1.730806312786456E-007
 -2.400000000000000E-002    2.904811876248482E-007
 -2.390000000000000E-002    4.235319434619973E-007
 -2.380000000000000E-002    5.729135337569958E-007
 -2.370000000000000E-002    7.391685190432254E-007
 -2.360000000000000E-002    9.226884007483121E-007
 -2.350000000000000E-002    1.123709064581668E-006
 -2.340000000000000E-002    1.342315526315560E-006
 -2.330000000000000E-002    1.578454781892915E-006
 -2.320000000000000E-002    1.831954350969239E-006
 -2.310000000000000E-002    2.102547658424663E-006
 -2.300000000000000E-002    2.389900685573654E-006
 -2.290000000000000E-002    2.693639433063013E-006
 -2.280000000000000E-002    3.013375096755688E-006
 -2.270000000000000E-002    3.348726594203496E-006
 -2.260000000000000E-002    3.699334738615626E-006
 -2.250000000000000E-002    4.064872312290768E-006
 -2.240000000000000E-002    4.445045362932759E-006
 -2.230000000000000E-002    4.839589994533456E-006
 -2.220000000000000E-002    5.248266035402756E-006
 -2.210000000000000E-002    5.670846776282997E-006
 -2.200000000000000E-002    6.107116111724458E-006
 -2.190000000000000E-002    6.556866844668522E-006
 -2.180000000000000E-002    7.019910670276562E-006
 -2.170000000000000E-002    7.496102722238079E-006
 -2.160000000000000E-002    7.985374134181065E-006
 -2.150000000000000E-002    8.487783572897717E-006
 -2.140000000000000E-002    9.003579446432951E-006
 -2.130000000000000E-002    9.533268332789617E-006
 -2.120000000000000E-002    1.007769742860441E-005
 -2.110000000000000E-002    1.063812428588111E-005
 -2.100000000000000E-002    1.121629095339663E-005
 -2.090000000000000E-002    1.181447991919064E-005
 -2.080000000000000E-002    1.243555742413064E-005
 -2.070000000000000E-002    1.308299710236934E-005
 -2.060000000000000E-002    1.376087996908323E-005
 -2.050000000000000E-002    1.447388680864159E-005
 -2.040000000000000E-002    1.522726075389844E-005
 -2.030000000000000E-002    1.602677346955057E-005
 -2.020000000000000E-002    1.687868306776506E-005
 -2.010000000000000E-002    1.778969572897846E-005
 -2.000000000000000E-002    1.876693636103540E-005
 -1.990000000000000E-002    1.981794220013633E-005
 -1.980000000000000E-002    2.095065848808479E-005
 -1.970000000000000E-002    2.217346650649863E-005
 -1.960000000000000E-002    2.349521778887691E-005
 -1.950000000000000E-002    2.492526999518623E-005
 -1.940000000000000E-002    2.647352262591003E-005
 -1.930000000000000E-002    2.815044808507301E-005
 -1.920000000000000E-002    2.996709443543036E-005
 -1.910000000000000E-002    3.193506125176205E-005
 -1.900000000000000E-002    3.406644110292521E-005
 -1.890000000000000E-002    3.637373256692838E-005
 -1.880000000000000E-002    3.886971879435207E-005
 -1.870000000000000E-002    4.156730857191843E-005
 -1.860000000000000E-002    4.447940232611577E-005
 -1.850000000000000E-002    4.761873432325029E-005
 -1.840000000000000E-002    5.099772949267300E-005
 -1.830000000000000E-002    5.462842597022720E-005
 -1.820000000000000E-002    5.852241608587382E-005
 -1.810000000000000E-002    6.269087324415243E-005
 -1.800000000000000E-002    6.714462205248936E-005
 -1.790000000000000E-002    7.189429288329992E-005
 -1.780000000000000E-002    7.695049829602345E-005
 -1.770000000000000E-002    8.232405106081610E-005
 -1.760000000000000E-002    8.802624242231689E-005
 -1.750000000000000E-002    9.406905688054487E-005
 -1.740000000000000E-002    1.004654080311649E-004
 -1.730000000000000E-002    1.072292892316208E-004
 -1.720000000000000E-002    1.143759046435932E-004
 -1.710000000000000E-002    1.219216903918137E-004
 -1.700000000000000E-002    1.298842662375691E-004
 -1.690000000000000E-002    1.382823699036546E-004
 -1.680000000000000E-002    1.471356665208576E-004
 -1.670000000000000E-002    1.564645784924641E-004
 -1.660000000000000E-002    1.662900674305205E-004
 -1.650000000000000E-002    1.766334513189980E-004
 -1.640000000000000E-002    1.875162703788762E-004
 -1.630000000000000E-002    1.989601937518882E-004
 -1.620000000000000E-002    2.109869945603356E-004
 -1.610000000000000E-002    2.236186401235986E-004
 -1.600000000000000E-002    2.368774492544071E-004
 -1.590000000000000E-002    2.507863054179063E-004
 -1.580000000000000E-002    2.653689523682293E-004
 -1.570000000000000E-002    2.806502586928812E-004
 -1.560000000000000E-002    2.966566255784447E-004
 -1.550000000000000E-002    3.134161955488996E-004
 -1.540000000000000E-002    3.309592292780654E-004
 -1.530000000000000E-002    3.493182750067716E-004
 -1.520000000000000E-002    3.685282167118318E-004
 -1.510000000000000E-002    3.886265016820213E-004
 -1.500000000000000E-002    4.096531358090828E-004
 -1.490000000000000E-002    4.316505283084735E-004
 -1.480000000000000E-002    4.546635017594905E-004
 -1.470000000000000E-002    4.787392894424294E-004
 -1.460000000000000E-002    5.039272261885106E-004
 -1.450000000000000E-002    5.302789129216374E-004
 -1.440000000000000E-002    5.578480608047123E-004
 -1.430000000000000E-002    5.866906669435085E-004
 -1.420000000000000E-002    6.168649095602875E-004
 -1.410000000000000E-002    6.484314861026212E-004
 -1.400000000000000E-002    6.814537436974419E-004
 -1.390000000000000E-002    7.159978497606053E-004
 -1.380000000000000E-002    7.521329967434884E-004
 -1.370000000000000E-002    7.899317370930889E-004
 -1.360000000000000E-002    8.294698748358477E-004
 -1.350000000000000E-002    8.708271047282572E-004
 -1.340000000000000E-002    9.140864968943175E-004
 -1.330000000000000E-002    9.593350550989642E-004
 -1.320000000000000E-002    1.006663273763543E-003
 -1.310000000000000E-002    1.056165493169806E-003
 -1.300000000000000E-002    1.107939349757593E-003
 -1.290000000000000E-002    1.162086031901188E-003
 -1.280000000000000E-002    1.218710022338552E-003
 -1.270000000000000E-002    1.277919138240448E-003
 -1.260000000000000E-002    1.339824407367690E-003
 -1.250000000000000E-002    1.404540029066254E-003
 -1.240000000000000E-002    1.472183617107038E-003
 -1.230000000000000E-002    1.542876444524975E-003
 -1.220000000000000E-002    1.616743263434007E-003
 -1.210000000000000E-002    1.693912498384459E-003
 -1.200000000000000E-002    1.774517052799719E-003
 -1.190000000000000E-002    1.858693877364260E-003
 -1.180000000000000E-002    1.946584212389222E-003
 -1.170000000000000E-002    2.038334088457906E-003
 -1.160000000000000E-002    2.134094384269129E-003
 -1.150000000000000E-002    2.234020668664357E-003
 -1.140000000000000E-002    2.338273223311939E-003
 -1.130000000000000E-002    2.447017269406946E-003
 -1.120000000000000E-002    2.560422796025273E-003
 -1.110000000000000E-002    2.678664765383156E-003
 -1.100000000000000E-002    2.801922446893083E-003
 -1.090000000000000E-002    2.930380461824691E-003
 -1.080000000000000E-002    3.064228025033150E-003
 -1.070000000000000E-002    3.203659372001834E-003
 -1.060000000000000E-002    3.348874254978252E-003
 -1.050000000000000E-002    3.500077066494428E-003
 -1.040000000000000E-002    3.657478235546372E-003
 -1.030000000000000E-002    3.821294189346976E-003
 -1.020000000000000E-002    3.991747581896856E-003
 -1.010000000000000E-002    4.169067501238627E-003
 -1.000000000000000E-002    4.353489596957322E-003
 -9.899999999999999E-003    4.545255916850970E-003
 -9.800000000000000E-003    4.744615738785820E-003
 -9.699999999999999E-003    4.951825207318871E-003
 -9.599999999999999E-003    5.167147984546032E-003
 -9.500000000000000E-003    5.390853238776874E-003
 -9.399999999999999E-003    5.623218230577334E-003
 -9.299999999999999E-003    5.864525696697859E-003
 -9.200000000000000E-003    6.115065670214456E-003
 -9.099999999999999E-003    6.375133924562042E-003
 -8.999999999999999E-003    6.645034220963423E-003
 -8.900000000000000E-003    6.925075192836879E-003
 -8.799999999999999E-003    7.215572855222295E-003
 -8.699999999999999E-003    7.516850418233361E-003
 -8.600000000000000E-003    7.829237949573608E-003
 -8.499999999999999E-003    8.153072567204865E-003
 -8.399999999999999E-003    8.488697921076212E-003
 -8.300000000000000E-003    8.836466057498240E-003
 -8.199999999999999E-003    9.196735774745541E-003
 -8.100000000000000E-003    9.569873655390155E-003
 -8.000000000000000E-003    9.956253133011215E-003
 -7.899999999999999E-003    1.035625423099016E-002
 -7.800000000000000E-003    1.077026481627801E-002
 -7.699999999999999E-003    1.119867859315025E-002
 -7.599999999999999E-003    1.164189502967104E-002
 -7.499999999999999E-003    1.210031909861907E-002
 -7.399999999999999E-003    1.257436286428987E-002
 -7.299999999999999E-003    1.306444205760933E-002
 -7.199999999999999E-003    1.357097724755067E-002
 -7.100000000000000E-003    1.409439707559944E-002
 -6.999999999999999E-003    1.463513244625086E-002
 -6.899999999999999E-003    1.519361994258710E-002
 -6.800000000000000E-003    1.577030335598954E-002
 -6.699999999999999E-003    1.636562891630934E-002
 -6.599999999999999E-003    1.698004895847135E-002
 -6.499999999999999E-003    1.761402349243603E-002
 -6.399999999999999E-003    1.826801319014301E-002
 -6.299999999999999E-003    1.894248487758781E-002
 -6.199999999999999E-003    1.963790742849051E-002
 -6.100000000000000E-003    2.035475185807088E-002
 -5.999999999999999E-003    2.109349219653705E-002
 -5.899999999999999E-003    2.185460216270568E-002
 -5.800000000000000E-003    2.263855508044259E-002
 -5.699999999999999E-003    2.344582350227663E-002
 -5.599999999999999E-003    2.427687722144809E-002
 -5.499999999999999E-003    2.513218443984419E-002
 -5.399999999999999E-003    2.601221051224560E-002
 -5.299999999999999E-003    2.691741799247483E-002
 -5.199999999999999E-003    2.784826318268293E-002
 -5.099999999999999E-003    2.880520152854605E-002
 -4.999999999999999E-003    2.978868337565388E-002
 -4.899999999999999E-003    3.079915561967932E-002
 -4.799999999999999E-003    3.183705965349150E-002
 -4.699999999999999E-003    3.290282705018499E-002
 -4.599999999999999E-003    3.399689502515926E-002
 -4.499999999999999E-003    3.511968240763268E-002
 -4.399999999999999E-003    3.627160647532969E-002
 -4.299999999999999E-003    3.745307066560252E-002
 -4.199999999999999E-003    3.866447067630469E-002
 -4.099999999999999E-003    3.990618656080363E-002
 -3.999999999999999E-003    4.117858763214605E-002
 -3.899999999999999E-003    4.248202146318134E-002
 -3.799999999999999E-003    4.381682499792477E-002
 -3.699999999999999E-003    4.518331037602398E-002
 -3.599999999999999E-003    4.658177200429851E-002
 -3.499999999999999E-003    4.801248474630026E-002
 -3.399999999999999E-003    4.947570431507237E-002
 -3.299999999999999E-003    5.097165697454360E-002
 -3.199999999999999E-003    5.250054830274181E-002
 -3.099999999999999E-003    5.406256413072320E-002
 -2.999999999999999E-003    5.565785964251487E-002
 -2.899999999999999E-003    5.728656431662366E-002
 -2.799999999999999E-003    5.894877960535067E-002
 -2.699999999999999E-003    6.064457824592231E-002
 -2.599999999999999E-003    6.237399987501126E-002
 -2.499999999999999E-003    6.413705114105508E-002
 -2.399999999999999E-003    6.593369971939042E-002
 -2.299999999999999E-003    6.776387609386579E-002
 -2.199999999999999E-003    6.962746730941612E-002
 -2.099999999999999E-003    7.152431702614856E-002
 -1.999999999999999E-003    7.345422212063180E-002
 -1.899999999999999E-003    7.541692589149120E-002
 -1.799999999999999E-003    7.741213185167854E-002
 -1.699999999999999E-003    7.943948363377473E-002
 -1.599999999999999E-003    8.149857581641859E-002
 -1.499999999999999E-003    8.358895090569209E-002
 -1.399999999999999E-003    8.571008898513796E-002
 -1.299999999999999E-003    8.786141705259620E-002
 -1.199999999999999E-003    9.004230112847571E-002
 -1.099999999999999E-003    9.225204516519471E-002
 -9.999999999999989E-004    9.448989775095763E-002
 -8.999999999999990E-004    9.675503251306901E-002
 -7.999999999999990E-004    9.904655492735574E-002
 -6.999999999999989E-004    0.101363508574283     
 -5.999999999999990E-004    0.103704850777992     
 -4.999999999999989E-004    0.106069476445546     
 -3.999999999999989E-004    0.108456187526338     
 -2.999999999999989E-004    0.110863709796385     
 -1.999999999999989E-004    0.113290675381201     
 -9.999999999999892E-005    0.115735650136388     
  1.084202172485504E-018    0.118197078684216     
  1.000000000000011E-004    0.120673347551430     
  2.000000000000011E-004    0.123162739690361     
  3.000000000000011E-004    0.125663429806359     
  4.000000000000011E-004    0.128173520588907     
  5.000000000000011E-004    0.130690999485301     
  6.000000000000011E-004    0.133213766983768     
  7.000000000000011E-004    0.135739623158690     
  8.000000000000011E-004    0.138266256900233     
  9.000000000000012E-004    0.140791264089905     
  1.000000000000001E-003    0.143312118848316     
  1.100000000000001E-003    0.145826193511374     
  1.200000000000001E-003    0.148330752996886     
  1.300000000000001E-003    0.150822938526733     
  1.400000000000001E-003    0.153299784487039     
  1.500000000000001E-003    0.155758199647578     
  1.600000000000001E-003    0.158194970495586     
  1.700000000000001E-003    0.160606776779871     
  1.800000000000001E-003    0.162990161751737     
  1.900000000000001E-003    0.165341551426935     
  2.000000000000001E-003    0.167657241576424     
  2.100000000000001E-003    0.169933416386174     
  2.200000000000001E-003    0.172166116921999     
  2.300000000000001E-003    0.174351289605251     
  2.400000000000001E-003    0.176484737836461     
  2.500000000000001E-003    0.178562135781995     
  2.600000000000001E-003    0.180579046691347     
  2.700000000000001E-003    0.182530897743761     
  2.800000000000001E-003    0.184413000244849     
  2.900000000000001E-003    0.186220525272499     
  3.000000000000001E-003    0.187948542083014     
  3.100000000000001E-003    0.189591974346057     
  3.200000000000001E-003    0.191145612861100     
  3.300000000000001E-003    0.192604137383617     
  3.400000000000001E-003    0.193962108997238     
  3.500000000000001E-003    0.195213946314613     
  3.600000000000001E-003    0.196353965501904     
  3.700000000000001E-003    0.197376355366369     
  3.800000000000001E-003    0.198275168155978     
  3.900000000000001E-003    0.199044376835736     
  4.000000000000001E-003    0.199677821701894     
  4.100000000000001E-003    0.200169238737810     
  4.200000000000001E-003    0.200512260533807     
  4.300000000000001E-003    0.200700422731564     
  4.400000000000001E-003    0.200727155404578     
  4.500000000000001E-003    0.200585795666355     
  4.600000000000002E-003    0.200269601879280     
  4.700000000000001E-003    0.199771712860796     
  4.800000000000001E-003    0.199085219548104     
  4.900000000000002E-003    0.198203105126079     
  5.000000000000001E-003    0.197118300964178     
  5.100000000000001E-003    0.195823658486253     
  5.200000000000001E-003    0.194311950926696     
  5.300000000000002E-003    0.192575909032292     
  5.400000000000001E-003    0.190608207203204     
  5.500000000000001E-003    0.188401467879826     
  5.600000000000002E-003    0.185948280724317     
  5.700000000000001E-003    0.183241203593819     
  5.800000000000001E-003    0.180272773106822     
  5.900000000000002E-003    0.177035503229135     
  6.000000000000001E-003    0.173521904719322     
  6.100000000000001E-003    0.169724499226971     
  6.200000000000002E-003    0.165635810615429     
  6.300000000000002E-003    0.161248378651662     
  6.400000000000001E-003    0.156554767046311     
  6.500000000000001E-003    0.151547595521994     
  6.600000000000002E-003    0.146219503504958     
  6.700000000000001E-003    0.140563194852985     
  6.800000000000001E-003    0.134571449523448     
  6.900000000000002E-003    0.128237107748007     
  7.000000000000001E-003    0.121553086185193     
  7.100000000000001E-003    0.114512411566012     
  7.200000000000002E-003    0.107108211644164     
  7.300000000000002E-003    9.933373494802319E-002
  7.400000000000001E-003    9.118235179508334E-002
  7.500000000000001E-003    8.264757940978246E-002
  7.600000000000002E-003    7.372308701341020E-002
  7.700000000000001E-003    6.440271827903311E-002
  7.800000000000001E-003    5.468048410726323E-002
  7.900000000000001E-003    4.455059340621186E-002
  8.000000000000002E-003    3.400746750751397E-002
  8.100000000000001E-003    2.304573699612929E-002
  8.200000000000001E-003    1.166026378731768E-002
  8.300000000000002E-003   -1.538395433855965E-004
  8.400000000000001E-003   -1.240121203349275E-002
  8.500000000000002E-003   -2.508622368358994E-002
  8.600000000000002E-003   -3.821296305186069E-002
  8.700000000000001E-003   -5.178523388344755E-002
  8.800000000000002E-003   -6.580651533464399E-002
  8.900000000000002E-003   -8.027997115246568E-002
  9.000000000000001E-003   -9.520845991131197E-002
  9.100000000000002E-003   -0.110594468944589     
  9.200000000000002E-003   -0.126440124139909     
  9.300000000000001E-003   -0.142747172690889     
  9.400000000000002E-003   -0.159517023319460     
  9.500000000000001E-003   -0.176750609406095     
  9.600000000000001E-003   -0.194448494812163     
  9.700000000000002E-003   -0.212610793349315     
  9.800000000000001E-003   -0.231237177774697     
  9.900000000000001E-003   -0.250326878520651     
  1.000000000000000E-002   -0.269878647345634     
  1.010000000000000E-002   -0.289890771883285     
  1.020000000000000E-002   -0.310361069383914     
  1.030000000000000E-002   -0.331286799038165     
  1.040000000000000E-002   -0.352664767136911     
  1.050000000000000E-002   -0.374491272237070     
  1.060000000000000E-002   -0.396762018951345     
  1.070000000000000E-002   -0.419472227991547     
  1.080000000000000E-002   -0.442616575383786     
  1.090000000000000E-002   -0.466189121546424     
  1.100000000000000E-002   -0.490183442291008     
  1.110000000000000E-002   -0.514592499536395     
  1.120000000000000E-002   -0.539408624100791     
  1.130000000000000E-002   -0.564623633291159     
  1.140000000000000E-002   -0.590228678530849     
  1.150000000000000E-002   -0.616214355591920     
  1.160000000000000E-002   -0.642570666567496     
  1.170000000000000E-002   -0.669286906952022     
  1.180000000000000E-002   -0.696351805453156     
  1.190000000000000E-002   -0.723753523340876     
  1.200000000000000E-002   -0.751479554193001     
  1.210000000000000E-002   -0.779516744206140     
  1.220000000000000E-002   -0.807851345431090     
  1.230000000000000E-002   -0.836468976126457     
  1.240000000000000E-002   -0.865354643649970     
  1.250000000000000E-002   -0.894492751909655     
  1.260000000000000E-002   -0.923867032532483     
  1.270000000000000E-002   -0.953460591157695     
  1.280000000000000E-002   -0.983255942057539     
  1.290000000000000E-002    -1.01323502388596     
  1.300000000000000E-002    -1.04337919403233     
  1.310000000000000E-002    -1.07366913087379     
  1.320000000000000E-002    -1.10408481968841     
  1.330000000000000E-002    -1.13460585789538     
  1.340000000000000E-002    -1.16521121977140     
  1.350000000000000E-002    -1.19587929463690     
  1.360000000000000E-002    -1.22658787276683     
  1.370000000000000E-002    -1.25731423486245     
  1.380000000000000E-002    -1.28803502702380     
  1.390000000000000E-002    -1.31872665764400     
  1.400000000000000E-002    -1.34936476314073     
  1.410000000000000E-002    -1.37992459712100     
  1.420000000000000E-002    -1.41038098476079     
  1.430000000000000E-002    -1.44070828146437     
  1.440000000000000E-002    -1.47088034350064     
  1.450000000000000E-002    -1.50087068613147     
  1.460000000000000E-002    -1.53065237410199     
  1.470000000000000E-002    -1.56019817301593     
  1.480000000000000E-002    -1.58948038688874     
  1.490000000000000E-002    -1.61847107774608     
  1.500000000000000E-002    -1.64714200019702     
  1.510000000000000E-002    -1.67546467736018     
  1.520000000000000E-002    -1.70341028167650     
  1.530000000000000E-002    -1.73094976743394     
  1.540000000000000E-002    -1.75805390629459     
  1.550000000000000E-002    -1.78469326515399     
  1.560000000000000E-002    -1.81083853915366     
  1.570000000000000E-002    -1.83645986274210     
  1.580000000000000E-002    -1.86152756121149     
  1.590000000000000E-002    -1.88601199919664     
  1.600000000000000E-002    -1.90988316303583     
  1.610000000000000E-002    -1.93311147591615     
  1.620000000000000E-002    -1.95566702224676     
  1.630000000000000E-002    -1.97752020703367     
  1.640000000000000E-002    -1.99864136530743     
  1.650000000000000E-002    -2.01900112481654     
  1.660000000000000E-002    -2.03857037651382     
  1.670000000000000E-002    -2.05731998531733     
  1.680000000000000E-002    -2.07522127904342     
  1.690000000000000E-002    -2.09224565994254     
  1.700000000000000E-002    -2.10836490784188     
  1.710000000000000E-002    -2.12355134083487     
  1.720000000000000E-002    -2.13777732510322     
  1.730000000000000E-002    -2.15101592662746     
  1.740000000000000E-002    -2.16324053552007     
  1.750000000000000E-002    -2.17442523961591     
  1.760000000000000E-002    -2.18454435916827     
  1.770000000000000E-002    -2.19357302225759     
  1.780000000000000E-002    -2.20148679671096     
  1.790000000000000E-002    -2.20826207114913     
  1.800000000000000E-002    -2.21387552022139     
  1.810000000000000E-002    -2.21830514999717     
  1.820000000000000E-002    -2.22152924850423     
  1.830000000000000E-002    -2.22352691347901     
  1.840000000000000E-002    -2.22427821692537     
  1.850000000000000E-002    -2.22376399168281     
  1.860000000000000E-002    -2.22196604571429     
  1.870000000000000E-002    -2.21886685466781     