 -4.000000000000000E-002    0.000000000000000E+000
 -3.990000000000000E-002    0.000000000000000E+000
 -3.980000000000000E-002    0.000000000000000E+000
 -3.970000000000000E-002   -3.167093697320010E-017
 -3.960000000000000E-002   -1.718617268576100E-016
 -3.950000000000000E-002   -4.323380166851820E-016
 -3.940000000000000E-002   -3.580463892482125E-016
 -3.930000000000000E-002    1.904891642588841E-015
 -3.920000000000000E-002    1.138752833803302E-014
 -3.910000000000000E-002    3.930371338273263E-014
 -3.900000000000000E-002    1.076723317662809E-013
 -3.890000000000000E-002    2.558252376404970E-013
 -3.880000000000000E-002    5.487262813988374E-013
 -3.870000000000000E-002    1.086369180390669E-012
 -3.860000000000000E-002    2.012505475052689E-012
 -3.850000000000000E-002    3.519610880013483E-012
 -3.840000000000000E-002    5.845520821584371E-012
 -3.830000000000000E-002    9.255852999935712E-012
 -3.820000000000000E-002    1.400571090368764E-011
 -3.810000000000000E-002    2.027472144931837E-011
 -3.800000000000000E-002    2.807181932421407E-011
 -3.790000000000000E-002    3.711063806350189E-011
 -3.780000000000000E-002    4.666301433135471E-011
 -3.770000000000000E-002    5.540649038976763E-011
 -3.760000000000000E-002    6.129076251542999E-011
 -3.750000000000000E-002    6.145641226036395E-011
 -3.740000000000000E-002    5.224470451063538E-011
 -3.730000000000000E-002    2.933802811079422E-011
 -3.720000000000000E-002   -1.193555375749863E-011
 -3.710000000000000E-002   -7.611415329540400E-011
 -3.700000000000000E-002   -1.669328372361928E-010
 -3.690000000000000E-002   -2.865048148875771E-010
 -3.680000000000000E-002   -4.344174703799114E-010
 -3.670000000000000E-002   -6.068400363310648E-010
 -3.660000000000000E-002   -7.957669402409858E-010
 -3.650000000000000E-002   -9.885363166768012E-010
 -3.640000000000000E-002   -1.167762670054658E-009
 -3.630000000000000E-002   -1.311800759295859E-009
 -3.620000000000000E-002   -1.395816827542205E-009
 -3.610000000000000E-002   -1.393478911035827E-009
 -3.600000000000000E-002   -1.279203359369658E-009
 -3.590000000000000E-002   -1.030809984055458E-009
 -3.580000000000000E-002   -6.323621498623421E-010
 -3.570000000000000E-002   -7.690450065065350E-011
 -3.560000000000000E-002    6.312200464037471E-010
 -3.550000000000000E-002    1.474789525152484E-009
 -3.540000000000000E-002    2.423128407768339E-009
 -3.530000000000000E-002    3.432721141007610E-009
 -3.520000000000000E-002    4.449075221755496E-009
 -3.510000000000000E-002    5.409750546608122E-009
 -3.500000000000000E-002    6.248326808334461E-009
 -3.490000000000000E-002    6.898948083826026E-009
 -3.480000000000000E-002    7.300991338027358E-009
 -3.470000000000000E-002    7.403361508956650E-009
 -3.460000000000000E-002    7.167948153750832E-009
 -3.450000000000000E-002    6.571862666066549E-009
 -3.440000000000000E-002    5.608232475190685E-009
 -3.430000000000000E-002    4.285524316401219E-009
 -3.420000000000000E-002    2.625582060016380E-009
 -3.410000000000000E-002    6.607660034894656E-010
 -3.400000000000000E-002   -1.569261275095529E-009
 -3.390000000000000E-002   -4.020475600462719E-009
 -3.380000000000000E-002   -6.646539653378393E-009
 -3.370000000000000E-002   -9.399453468097906E-009
 -3.360000000000000E-002   -1.222851339962435E-008
 -3.350000000000000E-002   -1.507756545396774E-008
 -3.340000000000000E-002   -1.788086543534580E-008
 -3.330000000000000E-002   -2.055818372041540E-008
 -3.320000000000000E-002   -2.301005179600336E-008
 -3.310000000000000E-002   -2.511422679640240E-008
 -3.300000000000000E-002   -2.672447374367565E-008
 -3.290000000000000E-002   -2.767263923983653E-008
 -3.280000000000000E-002   -2.777470927638075E-008
 -3.270000000000000E-002   -2.684110560827239E-008
 -3.260000000000000E-002   -2.469096683211286E-008
 -3.250000000000000E-002   -2.116956268402417E-008
 -3.240000000000000E-002   -1.616750602428004E-008
 -3.230000000000000E-002   -9.639957583853408E-009
 -3.220000000000000E-002   -1.623763018313705E-009
 -3.210000000000000E-002    7.749550217917255E-009
 -3.200000000000000E-002    1.824682678045480E-008
 -3.190000000000000E-002    2.953383286298462E-008
 -3.180000000000000E-002    4.118411537465642E-008
 -3.170000000000000E-002    5.269620040820804E-008
 -3.160000000000000E-002    6.351829818583261E-008
 -3.150000000000000E-002    7.307890374634381E-008
 -3.140000000000000E-002    8.082099891796055E-008
 -3.130000000000000E-002    8.623704005019805E-008
 -3.120000000000000E-002    8.890183938002067E-008
 -3.110000000000000E-002    8.850049817216455E-008
 -3.100000000000000E-002    8.484894708007173E-008
 -3.090000000000000E-002    7.790543482209159E-008
 -3.080000000000000E-002    6.777208365570584E-008
 -3.070000000000000E-002    5.468667602772099E-008
 -3.060000000000000E-002    3.900573045982729E-008
 -3.050000000000000E-002    2.118082290679202E-008
 -3.040000000000000E-002    1.730652155639994E-009
 -3.030000000000000E-002   -1.878824217674624E-008
 -3.020000000000000E-002   -3.980929158278133E-008
 -3.010000000000000E-002   -6.077964603547253E-008
 -3.000000000000000E-002   -8.117793862138341E-008
 -2.990000000000000E-002   -1.005249608487420E-007
 -2.980000000000000E-002   -1.183870426621070E-007
 -2.970000000000000E-002   -1.343728999146524E-007
 -2.960000000000000E-002   -1.481256078509469E-007
 -2.950000000000000E-002   -1.593119035295269E-007
 -2.940000000000000E-002   -1.676115550613673E-007
 -2.930000000000000E-002   -1.727093993549996E-007
 -2.920000000000000E-002   -1.742925927194098E-007
 -2.910000000000000E-002   -1.720548486169115E-007
 -2.900000000000000E-002   -1.657087900578741E-007
 -2.890000000000000E-002   -1.550064192401246E-007
 -2.880000000000000E-002   -1.397667834076772E-007
 -2.870000000000000E-002   -1.199088001499410E-007
 -2.860000000000000E-002   -9.548638543801594E-008
 -2.850000000000000E-002   -6.672244695576998E-008
 -2.840000000000000E-002   -3.403789979711818E-008
 -2.830000000000000E-002    1.928045150110500E-009
 -2.820000000000000E-002    4.030965922723357E-008
 -2.810000000000000E-002    8.002118538471990E-008
 -2.800000000000000E-002    1.197795167835096E-007
 -2.790000000000000E-002    1.581432807702091E-007
 -2.780000000000000E-002    1.935671485366247E-007
 -2.770000000000000E-002    2.244685486484551E-007
 -2.760000000000000E-002    2.493027233703157E-007
 -2.750000000000000E-002    2.666408181785281E-007
 -2.740000000000000E-002    2.752449817086183E-007
 -2.730000000000000E-002    2.741339502291028E-007
 -2.720000000000000E-002    2.626328497356415E-007
 -2.710000000000000E-002    2.404017557174235E-007
 -2.700000000000000E-002    2.074388452508628E-007
 -2.690000000000000E-002    1.640555861720288E-007
 -2.680000000000000E-002    1.108242324520640E-007
 -2.670000000000000E-002    4.849970549360316E-008
 -2.660000000000000E-002   -2.207897493443051E-008
 -2.650000000000000E-002   -1.001004992012831E-007
 -2.640000000000000E-002   -1.848970894544836E-007
 -2.630000000000000E-002   -2.760539564000586E-007
 -2.620000000000000E-002   -3.735011665801459E-007
 -2.610000000000000E-002   -4.775784415842863E-007
 -2.600000000000000E-002   -5.890635617753970E-007
 -2.590000000000000E-002   -7.091587868070087E-007
 -2.580000000000000E-002   -8.394325294266538E-007
 -2.570000000000000E-002   -9.817181845828639E-007
 -2.560000000000000E-002   -1.137975004044432E-006
 -2.550000000000000E-002   -1.310121341849528E-006
 -2.540000000000000E-002   -1.499852971854700E-006
 -2.530000000000000E-002   -1.708462492163145E-006
 -2.520000000000000E-002   -1.936675500199869E-006
 -2.510000000000000E-002   -2.184521567977570E-006
 -2.500000000000000E-002   -2.451252478306632E-006
 -2.490000000000000E-002   -2.735319832963357E-006
 -2.480000000000000E-002   -3.034418957362579E-006
 -2.470000000000000E-002   -3.345598263758851E-006
 -2.460000000000000E-002   -3.665429542120152E-006
 -2.450000000000000E-002   -3.990227662021174E-006
 -2.440000000000000E-002   -4.316305518128727E-006
 -2.430000000000000E-002   -4.640241449323774E-006
 -2.420000000000000E-002   -4.959137745045374E-006
 -2.410000000000000E-002   -5.270850795288764E-006
 -2.400000000000000E-002   -5.574169036232010E-006
 -2.390000000000000E-002   -5.868922188291563E-006
 -2.380000000000000E-002   -6.156014325040490E-006
 -2.370000000000000E-002   -6.437371771693071E-006
 -2.360000000000000E-002   -6.715810791180332E-006
 -2.350000000000000E-002   -6.994834790991055E-006
 -2.340000000000000E-002   -7.278374009770596E-006
 -2.330000000000000E-002   -7.570494038677065E-006
 -2.320000000000000E-002   -7.875090839664473E-006
 -2.310000000000000E-002   -8.195603759159345E-006
 -2.300000000000000E-002   -8.534765007062192E-006
 -2.290000000000000E-002   -8.894410010739676E-006
 -2.280000000000000E-002   -9.275364659149746E-006
 -2.270000000000000E-002   -9.677412443271406E-006
 -2.260000000000000E-002   -1.009935437566708E-005
 -2.250000000000000E-002   -1.053914881504665E-005
 -2.240000000000000E-002   -1.099411720394962E-005
 -2.230000000000000E-002   -1.146120614022752E-005
 -2.220000000000000E-002   -1.193727604887973E-005
 -2.210000000000000E-002   -1.241939523550876E-005
 -2.200000000000000E-002   -1.290511931572229E-005
 -2.190000000000000E-002   -1.339271689374799E-005
 -2.180000000000000E-002   -1.388134913721768E-005
 -2.170000000000000E-002   -1.437116345138307E-005
 -2.160000000000000E-002   -1.486330964033578E-005
 -2.150000000000000E-002   -1.535987227558685E-005
 -2.140000000000000E-002   -1.586372655496569E-005
 -2.130000000000000E-002   -1.637833612785723E-005
 -2.120000000000000E-002   -1.690748534007112E-005
 -2.110000000000000E-002   -1.745501059038341E-005
 -2.100000000000000E-002   -1.802450820273891E-005
 -2.090000000000000E-002   -1.861907581846781E-005
 -2.080000000000000E-002   -1.924108417715082E-005
 -2.070000000000000E-002   -1.989201349840930E-005
 -2.060000000000000E-002   -2.057235530411682E-005
 -2.050000000000000E-002   -2.128159415030640E-005
 -2.040000000000000E-002   -2.201826208748685E-005
 -2.030000000000000E-002   -2.278007408553887E-005
 -2.020000000000000E-002   -2.356411371006055E-005
 -2.010000000000000E-002   -2.436705798567873E-005
 -2.000000000000000E-002   -2.518544474012651E-005
 -1.990000000000000E-002   -2.601591890424785E-005
 -1.980000000000000E-002   -2.685547679329490E-005
 -1.970000000000000E-002   -2.770166971172730E-005
 -1.960000000000000E-002   -2.855273948928509E-005
 -1.950000000000000E-002   -2.940771255633253E-005
 -1.940000000000000E-002   -3.026641069958329E-005
 -1.930000000000000E-002   -3.112938979088226E-005
 -1.920000000000000E-002   -3.199782119182478E-005
 -1.910000000000000E-002   -3.287332686706401E-005
 -1.900000000000000E-002   -3.375775964453880E-005
 -1.890000000000000E-002   -3.465298289908526E-005
 -1.880000000000000E-002   -3.556063576045849E-005
 -1.870000000000000E-002   -3.648191077574024E-005
 -1.860000000000000E-002   -3.741736320910611E-005
 -1.850000000000000E-002   -3.836676292969024E-005
 -1.840000000000000E-002   -3.932897390667110E-005
 -1.830000000000000E-002   -4.030190682227994E-005
 -1.820000000000000E-002   -4.128247955249200E-005
 -1.810000000000000E-002   -4.226663990209858E-005
 -1.800000000000000E-002   -4.324940490807291E-005
 -1.790000000000000E-002   -4.422490456975089E-005
 -1.780000000000000E-002   -4.518645226822164E-005
 -1.770000000000000E-002   -4.612661535538440E-005
 -1.760000000000000E-002   -4.703723334011978E-005
 -1.750000000000000E-002   -4.790949355477906E-005
 -1.740000000000000E-002   -4.873392607650183E-005
 -1.730000000000000E-002   -4.950043685526110E-005
 -1.720000000000000E-002   -5.019832230812579E-005
 -1.710000000000000E-002   -5.081627185840723E-005
 -1.700000000000000E-002   -5.134239896429867E-005
 -1.690000000000000E-002   -5.176425816111149E-005
 -1.680000000000000E-002   -5.206891222125019E-005
 -1.670000000000000E-002   -5.224294114108542E-005
 -1.660000000000000E-002   -5.227252670588242E-005
 -1.650000000000000E-002   -5.214349047645300E-005
 -1.640000000000000E-002   -5.184132241355010E-005
 -1.630000000000000E-002   -5.135116378865033E-005
 -1.620000000000000E-002   -5.065780198936272E-005
 -1.610000000000000E-002   -4.974553584223149E-005
 -1.600000000000000E-002   -4.859809939819113E-005
 -1.590000000000000E-002   -4.719840932478413E-005
 -1.580000000000000E-002   -4.552832970011538E-005
 -1.570000000000000E-002   -4.356838022809518E-005
 -1.560000000000000E-002   -4.129739785188405E-005
 -1.550000000000000E-002   -3.869225152988389E-005
 -1.540000000000000E-002   -3.572750476899666E-005
 -1.530000000000000E-002   -3.237509679464452E-005
 -1.520000000000000E-002   -2.860416275222795E-005
 -1.510000000000000E-002   -2.438083863470990E-005
 -1.500000000000000E-002   -1.966821515164921E-005
 -1.490000000000000E-002   -1.442623628431443E-005
 -1.480000000000000E-002   -8.611860400360218E-006
 -1.470000000000000E-002   -2.179154427847517E-006
 -1.460000000000000E-002    4.920538427937646E-006
 -1.450000000000000E-002    1.273842448443021E-005
 -1.440000000000000E-002    2.132805823489042E-005
 -1.430000000000000E-002    3.074515340329597E-005
 -1.420000000000000E-002    4.104758088340364E-005
 -1.410000000000000E-002    5.229518700949389E-005
 -1.400000000000000E-002    6.454996345152998E-005
 -1.390000000000000E-002    7.787622673697319E-005
 -1.380000000000000E-002    9.234071507565368E-005
 -1.370000000000000E-002    1.080130662754785E-004
 -1.360000000000000E-002    1.249661782097065E-004
 -1.350000000000000E-002    1.432765925041096E-004
 -1.340000000000000E-002    1.630250062783275E-004
 -1.330000000000000E-002    1.842966673461846E-004
 -1.320000000000000E-002    2.071818508965611E-004
 -1.310000000000000E-002    2.317762496209438E-004
 -1.300000000000000E-002    2.581811392090705E-004
 -1.290000000000000E-002    2.865036994150513E-004
 -1.280000000000000E-002    3.168571670696631E-004
 -1.270000000000000E-002    3.493608170278898E-004
 -1.260000000000000E-002    3.841400866063772E-004
 -1.250000000000000E-002    4.213264017861505E-004
 -1.240000000000000E-002    4.610572348840616E-004
 -1.230000000000000E-002    5.034761830871936E-004
 -1.220000000000000E-002    5.487327464842161E-004
 -1.210000000000000E-002    5.969826096486072E-004
 -1.200000000000000E-002    6.483877677834631E-004
 -1.190000000000000E-002    7.031167013191420E-004
 -1.180000000000000E-002    7.613447757968939E-004
 -1.170000000000000E-002    8.232545222890855E-004
 -1.160000000000000E-002    8.890362144997963E-004
 -1.150000000000000E-002    9.588882189796663E-004
 -1.140000000000000E-002    1.033017640261518E-003
 -1.130000000000000E-002    1.111640605341940E-003
 -1.120000000000000E-002    1.194982788835969E-003
 -1.110000000000000E-002    1.283279677264172E-003
 -1.100000000000000E-002    1.376776751257712E-003
 -1.090000000000000E-002    1.475729851870431E-003
 -1.080000000000000E-002    1.580404985672470E-003
 -1.070000000000000E-002    1.691078806063124E-003
 -1.060000000000000E-002    1.808038246373094E-003
 -1.050000000000000E-002    1.931580301037919E-003
 -1.040000000000000E-002    2.062012543374045E-003
 -1.030000000000000E-002    2.199653191599077E-003
 -1.020000000000000E-002    2.344830767301588E-003
 -1.010000000000000E-002    2.497885014287014E-003
 -1.000000000000000E-002    2.659166989856757E-003
 -9.899999999999999E-003    2.829039346500479E-003
 -9.800000000000000E-003    3.007877490755387E-003
 -9.699999999999999E-003    3.196069891864794E-003
 -9.599999999999999E-003    3.394018882697155E-003
 -9.500000000000000E-003    3.602140979626760E-003
 -9.399999999999999E-003    3.820868195285133E-003
 -9.299999999999999E-003    4.050647731893975E-003
 -9.200000000000000E-003    4.291943370702535E-003
 -9.099999999999999E-003    4.545234175396684E-003
 -8.999999999999999E-003    4.811015811853751E-003
 -8.900000000000000E-003    5.089800722646730E-003
 -8.799999999999999E-003    5.382116458739980E-003
 -8.699999999999999E-003    5.688506704873064E-003
 -8.600000000000000E-003    6.009530805888609E-003
 -8.499999999999999E-003    6.345763865101114E-003
 -8.399999999999999E-003    6.697795487345268E-003
 -8.300000000000000E-003    7.066231302429692E-003
 -8.199999999999999E-003    7.451691331535092E-003
 -8.100000000000000E-003    7.854812725093906E-003
 -8.000000000000000E-003    8.276248368839112E-003
 -7.899999999999999E-003    8.716666972628854E-003
 -7.800000000000000E-003    9.176755393647189E-003
 -7.699999999999999E-003    9.657219288822230E-003
 -7.599999999999999E-003    1.015878271974737E-002
 -7.499999999999999E-003    1.068218831688959E-002
 -7.399999999999999E-003    1.122819832934306E-002
 -7.299999999999999E-003    1.179759675510240E-002
 -7.199999999999999E-003    1.239118553554650E-002
 -7.100000000000000E-003    1.300978705838557E-002
 -6.999999999999999E-003    1.365424386442444E-002
 -6.899999999999999E-003    1.432541750532504E-002
 -6.800000000000000E-003    1.502418807970155E-002
 -6.699999999999999E-003    1.575145317186766E-002
 -6.599999999999999E-003    1.650813011216824E-002
 -6.499999999999999E-003    1.729514899780760E-002
 -6.399999999999999E-003    1.811346156488111E-002
 -6.299999999999999E-003    1.896403317292423E-002
 -6.199999999999999E-003    1.984784619802618E-002
 -6.100000000000000E-003    2.076590047422395E-002
 -5.999999999999999E-003    2.171921035317450E-002
 -5.899999999999999E-003    2.270880622533459E-002
 -5.800000000000000E-003    2.373573710384926E-002
 -5.699999999999999E-003    2.480106903609424E-002
 -5.599999999999999E-003    2.590588196360898E-002
 -5.499999999999999E-003    2.705127481338325E-002
 -5.399999999999999E-003    2.823836031551162E-002
 -5.299999999999999E-003    2.946826929059138E-002
 -5.199999999999999E-003    3.074214669416917E-002
 -5.099999999999999E-003    3.206114878521214E-002
 -4.999999999999999E-003    3.342644827998056E-002
 -4.899999999999999E-003    3.483923149000734E-002
 -4.799999999999999E-003    3.630069143556962E-002
 -4.699999999999999E-003    3.781203506973702E-002
 -4.599999999999999E-003    3.937447493162672E-002
 -4.499999999999999E-003    4.098923382488695E-002
 -4.399999999999999E-003    4.265753952862102E-002
 -4.299999999999999E-003    4.438062462199793E-002
 -4.199999999999999E-003    4.615973050662041E-002
 -4.099999999999999E-003    4.799609635629409E-002
 -3.999999999999999E-003    4.989097317669001E-002
 -3.899999999999999E-003    5.184560283434272E-002
 -3.799999999999999E-003    5.386123758712180E-002
 -3.699999999999999E-003    5.593912549920359E-002
 -3.599999999999999E-003    5.808051629295591E-002
 -3.499999999999999E-003    6.028665621721870E-002
 -3.399999999999999E-003    6.255878371943432E-002
 -3.299999999999999E-003    6.489814471993967E-002
 -3.199999999999999E-003    6.730596828822930E-002
 -3.099999999999999E-003    6.978347160469667E-002
 -2.999999999999999E-003    7.233187369719693E-002
 -2.899999999999999E-003    7.495237531506922E-002
 -2.799999999999999E-003    7.764616000094353E-002
 -2.699999999999999E-003    8.041439796303612E-002
 -2.599999999999999E-003    8.325824324733680E-002
 -2.499999999999999E-003    8.617882265617950E-002
 -2.399999999999999E-003    8.917724127752044E-002
 -2.299999999999999E-003    9.225458900370991E-002
 -2.199999999999999E-003    9.541191951524536E-002
 -2.099999999999999E-003    9.865025529515013E-002
 -1.999999999999999E-003    0.101970591769338     
 -1.899999999999999E-003    0.105373893635474     
 -1.799999999999999E-003    0.108861089041530     
 -1.699999999999999E-003    0.112433058633907     
 -1.599999999999999E-003    0.116090660135251     
 -1.499999999999999E-003    0.119834691415159     
 -1.399999999999999E-003    0.123665929049686     
 -1.299999999999999E-003    0.127585081173949     
 -1.199999999999999E-003    0.131592813276265     
 -1.099999999999999E-003    0.135689746592440     
 -9.999999999999989E-004    0.139876443918292     
 -8.999999999999990E-004    0.144153410283274     
 -7.999999999999990E-004    0.148521094424934     
 -6.999999999999989E-004    0.152979874561368     
 -5.999999999999990E-004    0.157530071220515     
 -4.999999999999989E-004    0.162171920970969     
 -3.999999999999989E-004    0.166905613615189     
 -2.999999999999989E-004    0.171731247856593     
 -1.999999999999989E-004    0.176648835040143     
 -9.999999999999892E-005    0.181658323587163     
  1.084202172485504E-018    0.186759556599031     
  1.000000000000011E-004    0.191952313494818     
  2.000000000000011E-004    0.197236268950396     
  3.000000000000011E-004    0.202611020795952     
  4.000000000000011E-004    0.208076053684590     
  5.000000000000011E-004    0.213630781518425     
  6.000000000000011E-004    0.219274493872414     
  7.000000000000011E-004    0.225006392543391     
  8.000000000000011E-004    0.230825581417095     
  9.000000000000012E-004    0.236731045719403     
  1.000000000000001E-003    0.242721651951468     
  1.100000000000001E-003    0.248796191028227     
  1.200000000000001E-003    0.254953301093903     
  1.300000000000001E-003    0.261191540709848     
  1.400000000000001E-003    0.267509288227532     
  1.500000000000001E-003    0.273904867333537     
  1.600000000000001E-003    0.280376424241871     
  1.700000000000001E-003    0.286921993534904     
  1.800000000000001E-003    0.293539455760928     
  1.900000000000001E-003    0.300226620623673     
  2.000000000000001E-003    0.306981108840376     
  2.100000000000001E-003    0.313800423530139     
  2.200000000000001E-003    0.320681931658341     
  2.300000000000001E-003    0.327622854668170     
  2.400000000000001E-003    0.334620309361895     
  2.500000000000001E-003    0.341671215731125     
  2.600000000000001E-003    0.348772412062775     
  2.700000000000001E-003    0.355920540029230     
  2.800000000000001E-003    0.363112143831588     
  2.900000000000001E-003    0.370343615126170     
  3.000000000000001E-003    0.377611161412706     
  3.100000000000001E-003    0.384910873670163     
  3.200000000000001E-003    0.392238668536354     
  3.300000000000001E-003    0.399590363165827     
  3.400000000000001E-003    0.406961586747816     
  3.500000000000001E-003    0.414347851389150     
  3.600000000000001E-003    0.421744458195501     
  3.700000000000001E-003    0.429146633067728     
  3.800000000000001E-003    0.436549414417770     
  3.900000000000001E-003    0.443947694479536     
  4.000000000000001E-003    0.451336245118419     
  4.100000000000001E-003    0.458709674975333     
  4.200000000000001E-003    0.466062439361384     
  4.300000000000001E-003    0.473388892875956     
  4.400000000000001E-003    0.480683237455041     
  4.500000000000001E-003    0.487939486347845     
  4.600000000000002E-003    0.495151622038255     
  4.700000000000001E-003    0.502313417661884     
  4.800000000000001E-003    0.509418524934827     
  4.900000000000002E-003    0.516460555240614     
  5.000000000000001E-003    0.523432870665409     
  5.100000000000001E-003    0.530328736489926     
  5.200000000000001E-003    0.537141400861371     
  5.300000000000002E-003    0.543863917602093     
  5.400000000000001E-003    0.550489247198854     
  5.500000000000001E-003    0.557010216544581     
  5.600000000000002E-003    0.563419624656303     
  5.700000000000001E-003    0.569710127369677     
  5.800000000000001E-003    0.575874261919182     
  5.900000000000002E-003    0.581904567729270     
  6.000000000000001E-003    0.587793406833630     
  6.100000000000001E-003    0.593533168563943     
  6.200000000000002E-003    0.599116044804275     
  6.300000000000002E-003    0.604534311187465     
  6.400000000000001E-003    0.609780103721870     
  6.500000000000001E-003    0.614845489621532     
  6.600000000000002E-003    0.619722586268191     
  6.700000000000001E-003    0.624403378681452     
  6.800000000000001E-003    0.628879838659182     
  6.900000000000002E-003    0.633144010696062     
  7.000000000000001E-003    0.637187831730121     
  7.100000000000001E-003    0.641003291390509     
  7.200000000000002E-003    0.644582319760393     
  7.300000000000002E-003    0.647916930595745     
  7.400000000000001E-003    0.650999069799725     
  7.500000000000001E-003    0.653820781110563     
  7.600000000000002E-003    0.656374155695450     
  7.700000000000001E-003    0.658651243872475     
  7.800000000000001E-003    0.660644259047075     
  7.900000000000001E-003    0.662345362963550     
  8.000000000000002E-003    0.663746919645036     
  8.100000000000001E-003    0.664841193280917     
  8.200000000000001E-003    0.665620699362960     
  8.300000000000002E-003    0.666077973488774     
  8.400000000000001E-003    0.666205717984389     
  8.500000000000002E-003    0.665996683889787     
  8.600000000000002E-003    0.665443754416541     
  8.700000000000001E-003    0.664540041861296     
  8.800000000000002E-003    0.663278723829249     
  8.900000000000002E-003    0.661653170482583     
  9.000000000000001E-003    0.659656839289148     
  9.100000000000002E-003    0.657283507676309     
  9.200000000000002E-003    0.654527018793210     
  9.300000000000001E-003    0.651381468697348     
  9.400000000000002E-003    0.647841123689140     
  9.500000000000001E-003    0.643900478772293     
  9.600000000000001E-003    0.639554265966256     
  9.700000000000002E-003    0.634797406266467     
  9.800000000000001E-003    0.629625128443543     
  9.900000000000001E-003    0.624032873530838     
  1.000000000000000E-002    0.618016347583938     
  1.010000000000000E-002    0.611571496488096     
  1.020000000000000E-002    0.604694588291281     
  1.030000000000000E-002    0.597382145758334     
  1.040000000000000E-002    0.589631043689373     
  1.050000000000000E-002    0.581438430051843     
  1.060000000000000E-002    0.572801738682333     
  1.070000000000000E-002    0.563718718336281     
  1.080000000000000E-002    0.554187507500988     
  1.090000000000000E-002    0.544206551679780     
  1.100000000000000E-002    0.533774591417737     
  1.110000000000000E-002    0.522890772404991     
  1.120000000000000E-002    0.511554584872931     
  1.130000000000000E-002    0.499765859258681     
  1.140000000000000E-002    0.487524784041399     
  1.150000000000000E-002    0.474831943708799     
  1.160000000000000E-002    0.461688300712876     
  1.170000000000000E-002    0.448095164773345     
  1.180000000000000E-002    0.434054249621043     
  1.190000000000000E-002    0.419567698668510     
  1.200000000000000E-002    0.404637976812232     
  1.210000000000000E-002    0.389268042368737     
  1.220000000000000E-002    0.373461179091859     
  1.230000000000000E-002    0.357221114591331     
  1.240000000000000E-002    0.340551970264997     
  1.250000000000000E-002    0.323458282252125     
  1.260000000000000E-002    0.305944980693654     
  1.270000000000000E-002    0.288017434273221     
  1.280000000000000E-002    0.269681377225818     
  1.290000000000000E-002    0.250942988001905     
  1.300000000000000E-002    0.231808851940041     
  1.310000000000000E-002    0.212285950629992     
  1.320000000000000E-002    0.192381680952271     
  1.330000000000000E-002    0.172103835234682     
  1.340000000000000E-002    0.151460613444253     
  1.350000000000000E-002    0.130460618858162     
  1.360000000000000E-002    0.109112858045798     
  1.370000000000000E-002    8.742670997074795E-002
  1.380000000000000E-002    6.541195768016513E-002
  1.390000000000000E-002    4.307876726255875E-002
  1.400000000000000E-002    2.043769638166638E-002
  1.410000000000000E-002   -2.500344196153500E-003
  1.420000000000000E-002   -2.572407020054960E-002
  1.430000000000000E-002   -4.922182492047729E-002
  1.440000000000000E-002   -7.298160545036700E-002
  1.450000000000000E-002   -9.699107078468912E-002
  1.460000000000000E-002   -0.121237532935252     
  1.470000000000000E-002   -0.145707982282207     
  1.480000000000000E-002   -0.170389086587215     
  1.490000000000000E-002   -0.195267203561518     
  1.500000000000000E-002   -0.220328396285280     
  1.510000000000000E-002   -0.245558423460901     
  1.520000000000000E-002   -0.270942780133975     
  1.530000000000000E-002   -0.296466695998152     
  1.540000000000000E-002   -0.322115116949796     
  1.550000000000000E-002   -0.347872761877135     
  1.560000000000000E-002   -0.373724120835667     
  1.570000000000000E-002   -0.399653459456000     
  1.580000000000000E-002   -0.425644808166005     
  1.590000000000000E-002   -0.451682035789631     
  1.600000000000000E-002   -0.477748819085677     
  1.610000000000000E-002   -0.503828724682548     
  1.620000000000000E-002   -0.529905042595234     
  1.630000000000000E-002   -0.555961048491139     
  1.640000000000000E-002   -0.581979792016474     
  1.650000000000000E-002   -0.607944303600566     
  1.660000000000000E-002   -0.633837494495553     
  1.670000000000000E-002   -0.659642152492883     
  1.680000000000000E-002   -0.685341087526974     
  1.690000000000000E-002   -0.710916977722966     
  1.700000000000000E-002   -0.736352486265207     
  1.710000000000000E-002   -0.761630364103346     
  1.720000000000000E-002   -0.786733244681997     
  1.730000000000000E-002   -0.811643839622383     
  1.740000000000000E-002   -0.836344855846533     
  1.750000000000000E-002   -0.860819037920651     
  1.760000000000000E-002   -0.885049256299273     
  1.770000000000000E-002   -0.909018545316946     
  1.780000000000000E-002   -0.932709859251959     
  1.790000000000000E-002   -0.956106338828168     
  1.800000000000000E-002   -0.979191253572575     
  1.810000000000000E-002    -1.00194808654037     
  1.820000000000000E-002    -1.02436039650754     
  1.830000000000000E-002    -1.04641185183257     
  1.840000000000000E-002    -1.06808656791642     
  1.850000000000000E-002    -1.08936882344620     
  1.860000000000000E-002    -1.11024289373537     
  1.870000000000000E-002    -1.13069354723444     