 -4.000000000000000E-002    0.000000000000000E+000
 -3.990000000000000E-002    0.000000000000000E+000
 -3.980000000000000E-002    0.000000000000000E+000
 -3.970000000000000E-002    0.000000000000000E+000
 -3.960000000000000E-002    0.000000000000000E+000
 -3.950000000000000E-002    0.000000000000000E+000
 -3.940000000000000E-002    0.000000000000000E+000
 -3.930000000000000E-002    0.000000000000000E+000
 -3.920000000000000E-002    0.000000000000000E+000
 -3.910000000000000E-002    0.000000000000000E+000
 -3.900000000000000E-002    7.250442796485057E-037
 -3.890000000000000E-002    1.514706250226692E-035
 -3.880000000000000E-002    1.651651242578592E-034
 -3.870000000000000E-002    1.250154845513439E-033
 -3.860000000000000E-002    7.372089511484386E-033
 -3.850000000000000E-002    3.604729703706674E-032
 -3.840000000000000E-002    1.519311358886917E-031
 -3.830000000000000E-002    5.666393887025111E-031
 -3.820000000000000E-002    1.905503962620644E-030
 -3.810000000000000E-002    5.859103151674223E-030
 -3.800000000000000E-002    1.665038611093621E-029
 -3.790000000000000E-002    4.409855932329591E-029
 -3.780000000000000E-002    1.095735073509656E-028
 -3.770000000000000E-002    2.567728286643913E-028
 -3.760000000000000E-002    5.698414355572211E-028
 -3.750000000000000E-002    1.201453304449388E-027
 -3.740000000000000E-002    2.412229189099273E-027
 -3.730000000000000E-002    4.618817914802526E-027
 -3.720000000000000E-002    8.438938698673487E-027
 -3.710000000000000E-002    1.470478610303651E-026
 -3.700000000000000E-002    2.438816980134613E-026
 -3.690000000000000E-002    3.833889873704555E-026
 -3.680000000000000E-002    5.668176363255193E-026
 -3.670000000000000E-002    7.765170827193305E-026
 -3.660000000000000E-002    9.558520191243609E-026
 -3.650000000000000E-002    9.775652344767507E-026
 -3.640000000000000E-002    5.979807905058771E-026
 -3.630000000000000E-002   -6.035438308692547E-026
 -3.620000000000000E-002   -3.296030884287496E-025
 -3.610000000000000E-002   -8.467231042830949E-025
 -3.600000000000000E-002   -1.746828284702476E-024
 -3.590000000000000E-002   -3.199011473313439E-024
 -3.580000000000000E-002   -5.390612737953234E-024
 -3.570000000000000E-002   -8.489015288252652E-024
 -3.560000000000000E-002   -1.256954778567662E-023
 -3.550000000000000E-002   -1.749685327698808E-023
 -3.540000000000000E-002   -2.274832669316969E-023
 -3.530000000000000E-002   -2.717367487921832E-023
 -3.520000000000000E-002   -2.869643930582322E-023
 -3.510000000000000E-002   -2.398360635461232E-023
 -3.500000000000000E-002   -8.139748875714875E-024
 -3.490000000000000E-002    2.547695739577715E-023
 -3.480000000000000E-002    8.517037900138095E-023
 -3.470000000000000E-002    1.803549248940383E-022
 -3.460000000000000E-002    3.202932493155114E-022
 -3.450000000000000E-002    5.118570071633582E-022
 -3.440000000000000E-002    7.560657910247664E-022
 -3.430000000000000E-002    1.043249231829344E-021
 -3.420000000000000E-002    1.346861966933322E-021
 -3.410000000000000E-002    1.616284173913926E-021
 -3.400000000000000E-002    1.769373128293323E-021
 -3.390000000000000E-002    1.686089275475819E-021
 -3.380000000000000E-002    1.205166359248261E-021
 -3.370000000000000E-002    1.264584540855833E-022
 -3.360000000000000E-002   -1.777839958712433E-021
 -3.350000000000000E-002   -4.739599725780921E-021
 -3.340000000000000E-002   -8.955447075133773E-021
 -3.330000000000000E-002   -1.452923801565641E-020
 -3.320000000000000E-002   -2.139555965932081E-020
 -3.310000000000000E-002   -2.922632434874576E-020
 -3.300000000000000E-002   -3.732648822110639E-020
 -3.290000000000000E-002   -4.452998852736089E-020
 -3.280000000000000E-002   -4.911284713988686E-020
 -3.270000000000000E-002   -4.874652992029905E-020
 -3.260000000000000E-002   -4.052019520444095E-020
 -3.250000000000000E-002   -2.106447483288038E-020
 -3.240000000000000E-002    1.318969488025825E-020
 -3.230000000000000E-002    6.558717616013887E-020
 -3.220000000000000E-002    1.386390718459800E-019
 -3.210000000000000E-002    2.332239088479991E-019
 -3.200000000000000E-002    3.476207462133588E-019
 -3.190000000000000E-002    4.764288844546066E-019
 -3.180000000000000E-002    6.094695127507966E-019
 -3.170000000000000E-002    7.308107319187025E-019
 -3.160000000000000E-002    8.181049898501738E-019
 -3.150000000000000E-002    8.424710677255475E-019
 -3.140000000000000E-002    7.691849731597692E-019
 -3.130000000000000E-002    5.594549213735945E-019
 -3.120000000000000E-002    1.735363654077221E-019
 -3.110000000000000E-002   -4.246182795202652E-019
 -3.100000000000000E-002   -1.261093434797555E-018
 -3.090000000000000E-002   -2.344217182215315E-018
 -3.080000000000000E-002   -3.655564870969157E-018
 -3.070000000000000E-002   -5.140376306391849E-018
 -3.060000000000000E-002   -6.698338667624066E-018
 -3.050000000000000E-002   -8.176048118471075E-018
 -3.040000000000000E-002   -9.362798991874082E-018
 -3.030000000000000E-002   -9.991619437529417E-018
 -3.020000000000000E-002   -9.747602537215713E-018
 -3.010000000000000E-002   -8.285496721391296E-018
 -3.000000000000000E-002   -5.258155969186148E-018
 -2.990000000000000E-002   -3.567186596838976E-019
 -2.980000000000000E-002    6.637756102845373E-018
 -2.970000000000000E-002    1.579299465496464E-017
 -2.960000000000000E-002    2.695829483814307E-017
 -2.950000000000000E-002    3.969728846762641E-017
 -2.940000000000000E-002    5.322882538373516E-017
 -2.930000000000000E-002    6.638611919733882E-017
 -2.920000000000000E-002    7.760581590247706E-017
 -2.910000000000000E-002    8.495905692538441E-017
 -2.900000000000000E-002    8.623583055662798E-017
 -2.890000000000000E-002    7.909121556198760E-017
 -2.880000000000000E-002    6.125753118819209E-017
 -2.870000000000000E-002    3.081980785193703E-017
 -2.860000000000000E-002   -1.345667294323637E-017
 -2.850000000000000E-002   -7.176778398762565E-017
 -2.840000000000000E-002   -1.429123761985003E-016
 -2.830000000000000E-002   -2.239757791267876E-016
 -2.820000000000000E-002   -3.101035835975900E-016
 -2.810000000000000E-002   -3.944184113373385E-016
 -2.800000000000000E-002   -4.681306083489988E-016
 -2.790000000000000E-002   -5.208857840213099E-016
 -2.780000000000000E-002   -5.413764360979290E-016
 -2.770000000000000E-002   -5.182218909188219E-016
 -2.760000000000000E-002   -4.410909747533295E-016
 -2.750000000000000E-002   -3.020079374060915E-016
 -2.740000000000000E-002   -9.674663403818612E-017
 -2.730000000000000E-002    1.738150351515159E-016
 -2.720000000000000E-002    5.025330560285502E-016
 -2.710000000000000E-002    8.751940549378580E-016
 -2.700000000000000E-002    1.270232792924761E-015
 -2.690000000000000E-002    1.659109562913283E-015
 -2.680000000000000E-002    2.007441735854318E-015
 -2.670000000000000E-002    2.276920768368252E-015
 -2.660000000000000E-002    2.427964461537827E-015
 -2.650000000000000E-002    2.422968300278480E-015
 -2.640000000000000E-002    2.229929987157689E-015
 -2.630000000000000E-002    1.826147620148005E-015
 -2.620000000000000E-002    1.201638387500658E-015
 -2.610000000000000E-002    3.619058893240113E-016
 -2.600000000000000E-002   -6.702928572859362E-016
 -2.590000000000000E-002   -1.854462352617797E-015
 -2.580000000000000E-002   -3.133339283078380E-015
 -2.570000000000000E-002   -4.435348313852453E-015
 -2.560000000000000E-002   -5.678411632064549E-015
 -2.550000000000000E-002   -6.774819702947448E-015
 -2.540000000000000E-002   -7.636732252708372E-015
 -2.530000000000000E-002   -8.181786940677022E-015
 -2.520000000000000E-002   -8.338263444432427E-015
 -2.510000000000000E-002   -8.049306851938060E-015
 -2.500000000000000E-002   -7.275834982534590E-015
 -2.490000000000000E-002   -5.997964127052812E-015
 -2.480000000000000E-002   -4.215024747257223E-015
 -2.470000000000000E-002   -1.944506559913756E-015
 -2.460000000000000E-002    7.795013795242542E-016
 -2.450000000000000E-002    3.907652884584483E-015
 -2.440000000000000E-002    7.375709370804761E-015
 -2.430000000000000E-002    1.110327492049742E-014
 -2.420000000000000E-002    1.499052219929608E-014
 -2.410000000000000E-002    1.891294666054438E-014
 -2.400000000000000E-002    2.271471761719440E-014
 -2.390000000000000E-002    2.620177001244449E-014
 -2.380000000000000E-002    2.913631556567781E-014
 -2.370000000000000E-002    3.123484380648332E-014
 -2.360000000000000E-002    3.217183428808529E-014
 -2.350000000000000E-002    3.159122873301388E-014
 -2.340000000000000E-002    2.912716530515627E-014
 -2.330000000000000E-002    2.443452256319992E-014
 -2.320000000000000E-002    1.722857349928554E-014
 -2.310000000000000E-002    7.331526348773747E-015
 -2.300000000000000E-002   -5.277813624661702E-015
 -2.290000000000000E-002   -2.041645015167585E-014
 -2.280000000000000E-002   -3.765788018353446E-014
 -2.270000000000000E-002   -5.630772642718795E-014
 -2.260000000000000E-002   -7.540060843978569E-014
 -2.250000000000000E-002   -9.372334456399451E-014
 -2.240000000000000E-002   -1.098674490615496E-013
 -2.230000000000000E-002   -1.223110031526135E-013
 -2.220000000000000E-002   -1.295265365309260E-013
 -2.210000000000000E-002   -1.301080197448861E-013
 -2.200000000000000E-002   -1.229067026466477E-013
 -2.190000000000000E-002   -1.071629628596679E-013
 -2.180000000000000E-002   -8.261996523224873E-014
 -2.170000000000000E-002   -4.960504524283296E-014
 -2.160000000000000E-002   -9.066713924156367E-015
 -2.150000000000000E-002    3.744119425097765E-014
 -2.140000000000000E-002    8.783145068275440E-014
 -2.130000000000000E-002    1.396084713256646E-013
 -2.120000000000000E-002    1.900367306265229E-013
 -2.110000000000000E-002    2.363369777568086E-013
 -2.100000000000000E-002    2.758894432486444E-013
 -2.090000000000000E-002    3.064209554728291E-013
 -2.080000000000000E-002    3.261531004767405E-013
 -2.070000000000000E-002    3.338915943903151E-013
 -2.060000000000000E-002    3.290439563799522E-013
 -2.050000000000000E-002    3.115614539210554E-013
 -2.040000000000000E-002    2.818121539865004E-013
 -2.030000000000000E-002    2.404032879254818E-013
 -2.020000000000000E-002    1.879811287573462E-013
 -2.010000000000000E-002    1.250441637081364E-013
 -2.000000000000000E-002    5.180842735679750E-014
 -1.990000000000000E-002   -3.183822149592109E-014
 -1.980000000000000E-002   -1.262638542686009E-013
 -1.970000000000000E-002   -2.318870600568723E-013
 -1.960000000000000E-002   -3.488412169126988E-013
 -1.950000000000000E-002   -4.765324522482670E-013
 -1.940000000000000E-002   -6.131368217703127E-013
 -1.930000000000000E-002   -7.551016336165559E-013
 -1.920000000000000E-002   -8.967287550345859E-013
 -1.910000000000000E-002   -1.029924474410914E-012
 -1.900000000000000E-002   -1.144194632311071E-012
 -1.890000000000000E-002   -1.226948827970531E-012
 -1.880000000000000E-002   -1.264150100578643E-012
 -1.870000000000000E-002   -1.241310601487857E-012
 -1.860000000000000E-002   -1.144791769999334E-012
 -1.850000000000000E-002   -9.633231086540231E-013
 -1.840000000000000E-002   -6.896134279411718E-013
 -1.830000000000000E-002   -3.218962460851979E-013
 -1.820000000000000E-002    1.347667621040808E-013
 -1.810000000000000E-002    6.676008253681102E-013
 -1.800000000000000E-002    1.255808325382020E-012
 -1.790000000000000E-002    1.870950305476387E-012
 -1.780000000000000E-002    2.478077386012289E-012
 -1.770000000000000E-002    3.037596043018187E-012
 -1.760000000000000E-002    3.507778085875688E-012
 -1.750000000000000E-002    3.847744593216773E-012
 -1.740000000000000E-002    4.020689060217594E-012
 -1.730000000000000E-002    3.997056718268908E-012
 -1.720000000000000E-002    3.757380307633899E-012
 -1.710000000000000E-002    3.294479469446634E-012
 -1.700000000000000E-002    2.614777458452718E-012
 -1.690000000000000E-002    1.738563454201268E-012
 -1.680000000000000E-002    6.991258161353043E-013
 -1.670000000000000E-002   -4.592014496249166E-013
 -1.660000000000000E-002   -1.683923400877666E-012
 -1.650000000000000E-002   -2.917936331806376E-012
 -1.640000000000000E-002   -4.103402409473301E-012
 -1.630000000000000E-002   -5.185556400216948E-012
 -1.620000000000000E-002   -6.116053062270052E-012
 -1.610000000000000E-002   -6.855505628744798E-012
 -1.600000000000000E-002   -7.374960474923220E-012
 -1.590000000000000E-002   -7.656176177623077E-012
 -1.580000000000000E-002   -7.690730505128581E-012
 -1.570000000000000E-002   -7.478132855927800E-012
 -1.560000000000000E-002   -7.023266431205388E-012
 -1.550000000000000E-002   -6.333595566522663E-012
 -1.540000000000000E-002   -5.416633715184550E-012
 -1.530000000000000E-002   -4.278168784245091E-012
 -1.520000000000000E-002   -2.921665046638063E-012
 -1.510000000000000E-002   -1.349134266358125E-012
 -1.500000000000000E-002    4.364338532761400E-013
 -1.490000000000000E-002    2.427212837730031E-012
 -1.480000000000000E-002    4.605623980958187E-012
 -1.470000000000000E-002    6.938956365460882E-012
 -1.460000000000000E-002    9.374282083400030E-012
 -1.450000000000000E-002    1.183451835872184E-011
 -1.440000000000000E-002    1.421648823843420E-011
 -1.430000000000000E-002    1.639170914042045E-011
 -1.420000000000000E-002    1.821043020298724E-011
 -1.410000000000000E-002    1.950911579224500E-011
 -1.400000000000000E-002    2.012119827695339E-011
 -1.390000000000000E-002    1.989052095067747E-011
 -1.380000000000000E-002    1.868648880068853E-011
 -1.370000000000000E-002    1.641963192136707E-011
 -1.360000000000000E-002    1.305606305912017E-011
 -1.350000000000000E-002    8.629221809527717E-012
 -1.340000000000000E-002    3.247406208813017E-012
 -1.330000000000000E-002   -2.904155319512729E-012
 -1.320000000000000E-002   -9.567521469024501E-012
 -1.310000000000000E-002   -1.642282389262582E-011
 -1.300000000000000E-002   -2.310528022796645E-011
 -1.290000000000000E-002   -2.922745638064794E-011
 -1.280000000000000E-002   -3.440520767942266E-011
 -1.270000000000000E-002   -3.828527566879837E-011
 -1.260000000000000E-002   -4.057220354177350E-011
 -1.250000000000000E-002   -4.105219038884583E-011
 -1.240000000000000E-002   -3.961164381555612E-011
 -1.230000000000000E-002   -3.624861684445943E-011
 -1.220000000000000E-002   -3.107590249920347E-011
 -1.210000000000000E-002   -2.431531698276932E-011
 -1.200000000000000E-002   -1.628353512217579E-011
 -1.190000000000000E-002   -7.370642745702697E-012
 -1.180000000000000E-002    1.986710389220796E-012
 -1.170000000000000E-002    1.133514795048865E-011
 -1.160000000000000E-002    2.023471284406557E-011
 -1.150000000000000E-002    2.828661618488601E-011
 -1.140000000000000E-002    3.515621017296448E-011
 -1.130000000000000E-002    4.058932703159931E-011
 -1.120000000000000E-002    4.442089304721130E-011
 -1.110000000000000E-002    4.657560856738568E-011
 -1.100000000000000E-002    4.706134825330716E-011
 -1.090000000000000E-002    4.595676238284464E-011
 -1.080000000000000E-002    4.339514218454930E-011
 -1.070000000000000E-002    3.954695619386707E-011
 -1.060000000000000E-002    3.460348244711598E-011
 -1.050000000000000E-002    2.876363261306273E-011
 -1.040000000000000E-002    2.222548845527267E-011
 -1.030000000000000E-002    1.518319493008379E-011
 -1.020000000000000E-002    7.828936313537640E-012
 -1.010000000000000E-002    3.587827293467555E-013
 -1.000000000000000E-002   -7.019661899873523E-012
 -9.899999999999999E-003   -1.408031453510618E-011
 -9.800000000000000E-003   -2.057517540042332E-011
 -9.699999999999999E-003   -2.623682146490391E-011
 -9.599999999999999E-003   -3.078869627711475E-011
 -9.500000000000000E-003   -3.396397655880670E-011
 -9.399999999999999E-003   -3.553245601095048E-011
 -9.299999999999999E-003   -3.533351952174764E-011
 -9.200000000000000E-003   -3.331184343887342E-011
 -9.099999999999999E-003   -2.955141096544473E-011
 -8.999999999999999E-003   -2.430265205227533E-011
 -8.900000000000000E-003   -1.799744054554282E-011
 -8.799999999999999E-003   -1.124720442073394E-011
 -8.699999999999999E-003   -4.820561688047266E-012
 -8.600000000000000E-003    4.012508609082571E-013
 -8.499999999999999E-003    3.490684079122186E-012
 -8.399999999999999E-003    3.558823401235842E-012
 -8.300000000000000E-003   -1.466044079740946E-013
 -8.199999999999999E-003   -8.138026654377532E-012
 -8.100000000000000E-003   -2.058922359883412E-011
 -8.000000000000000E-003   -3.725146455716526E-011
 -7.899999999999999E-003   -5.739507724790323E-011
 -7.800000000000000E-003   -7.978579511827759E-011
 -7.699999999999999E-003   -1.027032393062599E-010
 -7.599999999999999E-003   -1.240056526077188E-010
 -7.499999999999999E-003   -1.412414194495479E-010
 -7.399999999999999E-003   -1.518036130162168E-010
 -7.299999999999999E-003   -1.531197627596575E-010
 -7.199999999999999E-003   -1.428651334741188E-010
 -7.100000000000000E-003   -1.191848180546760E-010
 -6.999999999999999E-003   -8.090775896134442E-011
 -6.899999999999999E-003   -2.773534079859164E-011
 -6.800000000000000E-003    3.961241384172317E-011
 -6.699999999999999E-003    1.193078453055710E-010
 -6.599999999999999E-003    2.083950871001995E-010
 -6.499999999999999E-003    3.028452328853901E-010
 -6.399999999999999E-003    3.976889819038690E-010
 -6.299999999999999E-003    4.872233189024188E-010
 -6.199999999999999E-003    5.652836285082447E-010
 -6.100000000000000E-003    6.255678334201039E-010
 -5.999999999999999E-003    6.619951254113859E-010
 -5.899999999999999E-003    6.690796401967415E-010
 -5.800000000000000E-003    6.422975594542822E-010
 -5.699999999999999E-003    5.784266796446005E-010
 -5.599999999999999E-003    4.758383586915538E-010
 -5.499999999999999E-003    3.347248431042568E-010
 -5.399999999999999E-003    1.572477775891717E-010
 -5.299999999999999E-003   -5.240166704408491E-011
 -5.199999999999999E-003   -2.880366683496772E-010
 -5.099999999999999E-003   -5.416034392839930E-010
 -4.999999999999999E-003   -8.034018082564063E-010
 -4.899999999999999E-003   -1.062390342534803E-009
 -4.799999999999999E-003   -1.306565945890006E-009
 -4.699999999999999E-003   -1.523404843319165E-009
 -4.599999999999999E-003   -1.700350120643543E-009
 -4.499999999999999E-003   -1.825328300450468E-009
 -4.399999999999999E-003   -1.887277336966850E-009
 -4.299999999999999E-003   -1.876667778006206E-009
 -4.199999999999999E-003   -1.785997205036748E-009
 -4.099999999999999E-003   -1.610238500311019E-009
 -3.999999999999999E-003   -1.347224417579708E-009
 -3.899999999999999E-003   -9.979486631164597E-010
 -3.799999999999999E-003   -5.667687425983990E-010
 -3.699999999999999E-003   -6.149551879313609E-011
 -3.599999999999999E-003    5.066414711457064E-010
 -3.499999999999999E-003    1.123159685905615E-009
 -3.399999999999999E-003    1.770623179519518E-009
 -3.299999999999999E-003    2.429070994550146E-009
 -3.199999999999999E-003    3.076566831446484E-009
 -3.099999999999999E-003    3.689853160049432E-009
 -2.999999999999999E-003    4.245087507234410E-009
 -2.899999999999999E-003    4.718635030049914E-009
 -2.799999999999999E-003    5.087884310145203E-009
 -2.699999999999999E-003    5.332053600530482E-009
 -2.599999999999999E-003    5.432952201186392E-009
 -2.499999999999999E-003    5.375661064215617E-009
 -2.399999999999999E-003    5.149108055211110E-009
 -2.299999999999999E-003    4.746507852016302E-009
 -2.199999999999999E-003    4.165654926024128E-009
 -2.099999999999999E-003    3.409057089972509E-009
 -1.999999999999999E-003    2.483916877099704E-009
 -1.899999999999999E-003    1.401968998854881E-009
 -1.799999999999999E-003    1.791957385333303E-010
 -1.699999999999999E-003   -1.164550957560037E-009
 -1.599999999999999E-003   -2.605986183709166E-009
 -1.499999999999999E-003   -4.118852600074472E-009
 -1.399999999999999E-003   -5.674369700262481E-009
 -1.299999999999999E-003   -7.241636117985662E-009
 -1.199999999999999E-003   -8.787963066959316E-009
 -1.099999999999999E-003   -1.027912345934381E-008
 -9.999999999999989E-004   -1.167951132862213E-008
 -8.999999999999990E-004   -1.295222478151997E-008
 -7.999999999999990E-004   -1.405909118588053E-008
 -6.999999999999989E-004   -1.496068362858120E-008
 -5.999999999999990E-004   -1.561636455164267E-008
 -4.999999999999989E-004   -1.598442874347464E-008
 -3.999999999999989E-004   -1.602240128132254E-008
 -2.999999999999989E-004   -1.568756345459313E-008
 -1.999999999999989E-004   -1.493777336457509E-008
 -9.999999999999892E-005   -1.373262834415921E-008
  1.084202172485504E-018   -1.203502317868167E-008
  1.000000000000011E-004   -9.813128451510586E-009
  2.000000000000011E-004   -7.042793454715966E-009
  3.000000000000011E-004   -3.710365297122442E-009
  4.000000000000011E-004    1.841212173700159E-010
  5.000000000000011E-004    4.623431333973459E-009
  6.000000000000011E-004    9.569391646671679E-009
  7.000000000000011E-004    1.495901255783418E-008
  8.000000000000011E-004    2.070058154214615E-008
  9.000000000000012E-004    2.666985484788936E-008
  1.000000000000001E-003    3.270643311631422E-008
  1.100000000000001E-003    3.861048253480081E-008
  1.200000000000001E-003    4.413982441268803E-008
  1.300000000000001E-003    4.900755226528052E-008
  1.400000000000001E-003    5.288015223550407E-008
  1.500000000000001E-003    5.537619889762410E-008
  1.600000000000001E-003    5.606562639013906E-008
  1.700000000000001E-003    5.446953092523075E-008
  1.800000000000001E-003    5.006047008173465E-008
  1.900000000000001E-003    4.226316205112415E-008
  2.000000000000001E-003    3.045563227483280E-008
  2.100000000000001E-003    1.397051268021621E-008
  2.200000000000001E-003   -7.903382288811961E-009
  2.300000000000001E-003   -3.591937195134576E-008
  2.400000000000001E-003   -7.087121895541393E-008
  2.500000000000001E-003   -1.135913399120402E-007
  2.600000000000001E-003   -1.649491516362511E-007
  2.700000000000001E-003   -2.258494225109242E-007
  2.800000000000001E-003   -2.972305744636213E-007
  2.900000000000001E-003   -3.800634227956921E-007
  3.000000000000001E-003   -4.753495198097986E-007
  3.100000000000001E-003   -5.841201053872569E-007
  3.200000000000001E-003   -7.074347704568019E-007
  3.300000000000001E-003   -8.463802984441796E-007
  3.400000000000001E-003   -1.002070184391443E-006
  3.500000000000001E-003   -1.175643969578022E-006
  3.600000000000001E-003   -1.368266915177003E-006
  3.700000000000001E-003   -1.581130050290036E-006
  3.800000000000001E-003   -1.815451163616027E-006
  3.900000000000001E-003   -2.072474861407006E-006
  4.000000000000001E-003   -2.353474482131005E-006
  4.100000000000001E-003   -2.659753613861794E-006
  4.200000000000001E-003   -2.992647608163731E-006
  4.300000000000001E-003   -3.353526315470568E-006
  4.400000000000001E-003   -3.743795472636834E-006
  4.500000000000001E-003   -4.164899456639914E-006
  4.600000000000002E-003   -4.618322194522276E-006
  4.700000000000001E-003   -5.105589295651918E-006
  4.800000000000001E-003   -5.628269665793421E-006
  4.900000000000002E-003   -6.187975879051395E-006
  5.000000000000001E-003   -6.786366076321759E-006
  5.100000000000001E-003   -7.425144997915414E-006
  5.200000000000001E-003   -8.106064253620956E-006
  5.300000000000002E-003   -8.830925102807862E-006
  5.400000000000001E-003   -9.601584929898774E-006
  5.500000000000001E-003   -1.041995827162656E-005
  5.600000000000002E-003   -1.128802828350654E-005
  5.700000000000001E-003   -1.220785604617811E-005
  5.800000000000001E-003   -1.318159447052804E-005
  5.900000000000002E-003   -1.421150398299615E-005
  6.000000000000001E-003   -1.529997460190800E-005
  6.100000000000001E-003   -1.644954824070139E-005
  6.200000000000002E-003   -1.766294390369144E-005
  6.300000000000002E-003   -1.894308571221255E-005
  6.400000000000001E-003   -2.029313398364805E-005
  6.500000000000001E-003   -2.171651059392859E-005
  6.600000000000002E-003   -2.321693256784187E-005
  6.700000000000001E-003   -2.479843647645838E-005
  6.800000000000001E-003   -2.646540231820889E-005
  6.900000000000002E-003   -2.822257682522023E-005
  7.000000000000001E-003   -3.007508887629409E-005
  7.100000000000001E-003   -3.202846283548361E-005
  7.200000000000002E-003   -3.408862203506170E-005
  7.300000000000002E-003   -3.626189626466584E-005
  7.400000000000001E-003   -3.855502519144791E-005
  7.500000000000001E-003   -4.097514852417886E-005
  7.600000000000002E-003   -4.352980635353850E-005
  7.700000000000001E-003   -4.622693367349666E-005
  7.800000000000001E-003   -4.907485860107655E-005
  7.900000000000001E-003   -5.208229415899380E-005
  8.000000000000002E-003   -5.525835471661198E-005
  8.100000000000001E-003   -5.861253802007754E-005
  8.200000000000001E-003   -6.215475814618171E-005
  8.300000000000002E-003   -6.589535560107192E-005
  8.400000000000001E-003   -6.984510627803881E-005
  8.500000000000002E-003   -7.401525338693116E-005
  8.600000000000002E-003   -7.841753716644764E-005
  8.700000000000001E-003   -8.306421430379231E-005
  8.800000000000002E-003   -8.796810262550237E-005
  8.900000000000002E-003   -9.314259738770530E-005
  9.000000000000001E-003   -9.860170143809326E-005
  9.100000000000002E-003   -1.043600524989360E-004
  9.200000000000002E-003   -1.104329562801197E-004
  9.300000000000001E-003   -1.168363926707643E-004
  9.400000000000002E-003   -1.235870378761341E-004
  9.500000000000001E-003   -1.307022794217742E-004
  9.600000000000001E-003   -1.382002385867776E-004
  9.700000000000002E-003   -1.460997883888692E-004
  9.800000000000001E-003   -1.544205523123519E-004
  9.900000000000001E-003   -1.631829445623326E-004
  1.000000000000000E-002   -1.724082120231957E-004
  1.010000000000000E-002   -1.821184445285330E-004
  1.020000000000000E-002   -1.923366318209242E-004
  1.030000000000000E-002   -2.030867359192602E-004
  1.040000000000000E-002   -2.143936885630565E-004
  1.050000000000000E-002   -2.262835437649266E-004
  1.060000000000000E-002   -2.387834814618021E-004
  1.070000000000000E-002   -2.519219242584721E-004
  1.080000000000000E-002   -2.657285946878894E-004
  1.090000000000000E-002   -2.802345805007881E-004
  1.100000000000000E-002   -2.954724136993394E-004
  1.110000000000000E-002   -3.114761822250009E-004
  1.120000000000000E-002   -3.282814551027629E-004
  1.130000000000000E-002   -3.459254757514456E-004
  1.140000000000000E-002   -3.644470674133489E-004
  1.150000000000000E-002   -3.838867329908423E-004
  1.160000000000000E-002   -4.042866081728039E-004
  1.170000000000000E-002   -4.256905454495338E-004
  1.180000000000000E-002   -4.481440208415497E-004
  1.190000000000000E-002   -4.716941710912873E-004
  1.200000000000000E-002   -4.963897943084796E-004
  1.210000000000000E-002   -5.222814154508997E-004
  1.220000000000000E-002   -5.494211806682565E-004
  1.230000000000000E-002   -5.778629893759530E-004
  1.240000000000000E-002   -6.076625578680759E-004
  1.250000000000000E-002   -6.388772696626428E-004
  1.260000000000000E-002   -6.715665875409182E-004
  1.270000000000000E-002   -7.057918542923917E-004
  1.280000000000000E-002   -7.416165861965957E-004
  1.290000000000000E-002   -7.791063998207099E-004
  1.300000000000000E-002   -8.183293734219482E-004
  1.310000000000000E-002   -8.593559330452034E-004
  1.320000000000000E-002   -9.022591347979089E-004
  1.330000000000000E-002   -9.471147002248924E-004
  1.340000000000000E-002   -9.940010403314951E-004
  1.350000000000000E-002   -1.042999436915185E-003
  1.360000000000000E-002   -1.094194078861868E-003
  1.370000000000000E-002   -1.147672063010234E-003
  1.380000000000000E-002   -1.203523619666398E-003
  1.390000000000000E-002   -1.261841761902644E-003
  1.400000000000000E-002   -1.322722783318480E-003
  1.410000000000000E-002   -1.386265718000801E-003
  1.420000000000000E-002   -1.452572864692856E-003
  1.430000000000000E-002   -1.521749490389613E-003
  1.440000000000000E-002   -1.593903942383719E-003
  1.450000000000000E-002   -1.669147592711133E-003
  1.460000000000000E-002   -1.747595021120676E-003
  1.470000000000000E-002   -1.829364023683588E-003
  1.480000000000000E-002   -1.914575783109315E-003
  1.490000000000000E-002   -2.003354898090944E-003
  1.500000000000000E-002   -2.095829205370426E-003
  1.510000000000000E-002   -2.192130397873285E-003
  1.520000000000000E-002   -2.292393922149599E-003
  1.530000000000000E-002   -2.396758951240706E-003
  1.540000000000000E-002   -2.505368789703142E-003
  1.550000000000000E-002   -2.618370673347132E-003
  1.560000000000000E-002   -2.735915988476486E-003
  1.570000000000000E-002   -2.858160315287908E-003
  1.580000000000000E-002   -2.985263356314558E-003
  1.590000000000000E-002   -3.117389226388190E-003
  1.600000000000000E-002   -3.254706128451765E-003
  1.610000000000000E-002   -3.397386436539601E-003
  1.620000000000000E-002   -3.545606572234299E-003
  1.630000000000000E-002   -3.699546993486145E-003
  1.640000000000000E-002   -3.859392111160981E-003
  1.650000000000000E-002   -4.025330208256827E-003
  1.660000000000000E-002   -4.197553849139813E-003
  1.670000000000000E-002   -4.376258640275255E-003
  1.680000000000000E-002   -4.561644876287587E-003
  1.690000000000000E-002   -4.753915895101402E-003
  1.700000000000000E-002   -4.953279130938380E-003
  1.710000000000000E-002   -5.159946078642144E-003
  1.720000000000000E-002   -5.374131613161995E-003
  1.730000000000000E-002   -5.596055245961178E-003
  1.740000000000000E-002   -5.825940300080438E-003
  1.750000000000000E-002   -6.064014100533442E-003
  1.760000000000000E-002   -6.310508169294788E-003
  1.770000000000000E-002   -6.565658048280134E-003
  1.780000000000000E-002   -6.829703845248440E-003
  1.790000000000000E-002   -7.102889436837423E-003
  1.800000000000000E-002   -7.385463092790636E-003
  1.810000000000000E-002   -7.677677717741775E-003
  1.820000000000000E-002   -7.979788559089779E-003
  1.830000000000000E-002   -8.292055423775429E-003
  1.840000000000000E-002   -8.614741674634748E-003
  1.850000000000000E-002   -8.948114116701154E-003
  1.860000000000000E-002   -9.292442182836813E-003
  1.870000000000000E-002   -9.647997315718681E-003