 -4.000000000000000E-002    0.000000000000000E+000
 -3.990000000000000E-002    0.000000000000000E+000
 -3.980000000000000E-002    0.000000000000000E+000
 -3.970000000000000E-002    0.000000000000000E+000
 -3.960000000000000E-002    2.996477886246096E-020
 -3.950000000000000E-002    2.741127610438482E-019
 -3.940000000000000E-002    1.382053163364972E-018
 -3.930000000000000E-002    5.051262399605303E-018
 -3.920000000000000E-002    1.487791892212893E-017
 -3.910000000000000E-002    3.726752886767700E-017
 -3.900000000000000E-002    8.186193491498618E-017
 -3.890000000000000E-002    1.605124893391795E-016
 -3.880000000000000E-002    2.834011416468041E-016
 -3.870000000000000E-002    4.506187861561610E-016
 -3.860000000000000E-002    6.375107348161815E-016
 -3.850000000000000E-002    7.725423630606623E-016
 -3.840000000000000E-002    7.074453391855179E-016
 -3.830000000000000E-002    1.810612569185575E-016
 -3.820000000000000E-002   -1.219343316392516E-015
 -3.810000000000000E-002   -4.092397024467640E-015
 -3.800000000000000E-002   -9.241802803210687E-015
 -3.790000000000000E-002   -1.766500905455119E-014
 -3.780000000000000E-002   -3.049095071088679E-014
 -3.770000000000000E-002   -4.884167147928366E-014
 -3.760000000000000E-002   -7.358932250215157E-014
 -3.750000000000000E-002   -1.049804160349788E-013
 -3.740000000000000E-002   -1.421059686888972E-013
 -3.730000000000000E-002   -1.822128409796231E-013
 -3.720000000000000E-002   -2.198811851424872E-013
 -3.710000000000000E-002   -2.461378098956186E-013
 -3.700000000000000E-002   -2.476343161653751E-013
 -3.690000000000000E-002   -2.060888491305414E-013
 -3.680000000000000E-002   -9.826051729401052E-014
 -3.670000000000000E-002    1.032179191581080E-013
 -3.660000000000000E-002    4.277998963343335E-013
 -3.650000000000000E-002    9.034612843410251E-013
 -3.640000000000000E-002    1.551404451406298E-012
 -3.630000000000000E-002    2.379022847376340E-012
 -3.620000000000000E-002    3.371412580018505E-012
 -3.610000000000000E-002    4.482093878039523E-012
 -3.600000000000000E-002    5.624028125797673E-012
 -3.590000000000000E-002    6.662431034517861E-012
 -3.580000000000000E-002    7.411210411193760E-012
 -3.570000000000000E-002    7.635024989128570E-012
 -3.560000000000000E-002    7.058863321209347E-012
 -3.550000000000000E-002    5.386631430847262E-012
 -3.540000000000000E-002    2.329472133852198E-012
 -3.530000000000000E-002   -2.356590636074232E-012
 -3.520000000000000E-002   -8.825467349444586E-012
 -3.510000000000000E-002   -1.709160884313651E-011
 -3.500000000000000E-002   -2.698122286084929E-011
 -3.490000000000000E-002   -3.809013082008339E-011
 -3.480000000000000E-002   -4.975502374141864E-011
 -3.470000000000000E-002   -6.104485569333030E-011
 -3.460000000000000E-002   -7.077824548727766E-011
 -3.450000000000000E-002   -7.757096966670077E-011
 -3.440000000000000E-002   -7.991500673077317E-011
 -3.430000000000000E-002   -7.628733418679919E-011
 -3.420000000000000E-002   -6.528308177609529E-011
 -3.410000000000000E-002   -4.576428608461353E-011
 -3.400000000000000E-002   -1.701254462876196E-011
 -3.390000000000000E-002    2.112788377015715E-011
 -3.380000000000000E-002    6.813050669161665E-011
 -3.370000000000000E-002    1.227034268008864E-010
 -3.360000000000000E-002    1.827529035853713E-010
 -3.350000000000000E-002    2.454001606318455E-010
 -3.340000000000000E-002    3.070533666158687E-010
 -3.330000000000000E-002    3.635319972927020E-010
 -3.320000000000000E-002    4.102366677106607E-010
 -3.310000000000000E-002    4.423543615086598E-010
 -3.300000000000000E-002    4.550878678819106E-010
 -3.290000000000000E-002    4.438984589576914E-010
 -3.280000000000000E-002    4.047531110692347E-010
 -3.270000000000000E-002    3.343708849250132E-010
 -3.260000000000000E-002    2.304667686887727E-010
 -3.250000000000000E-002    9.199413665310058E-011
 -3.240000000000000E-002   -8.061166285889952E-011
 -3.230000000000000E-002   -2.851876350872210E-010
 -3.220000000000000E-002   -5.175988835476636E-010
 -3.210000000000000E-002   -7.715072169938341E-010
 -3.200000000000000E-002   -1.038173918668971E-009
 -3.190000000000000E-002   -1.306329640655372E-009
 -3.180000000000000E-002   -1.562154562184455E-009
 -3.170000000000000E-002   -1.789418765159511E-009
 -3.160000000000000E-002   -1.969835441802022E-009
 -3.150000000000000E-002   -2.083672445530549E-009
 -3.140000000000000E-002   -2.110653817339070E-009
 -3.130000000000000E-002   -2.031158258398702E-009
 -3.120000000000000E-002   -1.827690992553974E-009
 -3.110000000000000E-002   -1.486565683533552E-009
 -3.100000000000000E-002   -9.996969672202373E-010
 -3.090000000000000E-002   -3.663647626490691E-010
 -3.080000000000000E-002    4.052139080225287E-010
 -3.070000000000000E-002    1.296687181356783E-009
 -3.060000000000000E-002    2.278922684530372E-009
 -3.050000000000000E-002    3.312071344744659E-009
 -3.040000000000000E-002    4.346455911835008E-009
 -3.030000000000000E-002    5.324339452237084E-009
 -3.020000000000000E-002    6.182555829955914E-009
 -3.010000000000000E-002    6.855903061621730E-009
 -3.000000000000000E-002    7.281120884645642E-009
 -2.990000000000000E-002    7.401200284094114E-009
 -2.980000000000000E-002    7.169726394288257E-009
 -2.970000000000000E-002    6.554918214405710E-009
 -2.960000000000000E-002    5.543037408206096E-009
 -2.950000000000000E-002    4.140866810160242E-009
 -2.940000000000000E-002    2.377018875276368E-009
 -2.930000000000000E-002    3.019227121488268E-010
 -2.920000000000000E-002   -2.013564522486022E-009
 -2.910000000000000E-002   -4.480864020845284E-009
 -2.900000000000000E-002   -6.997545375228229E-009
 -2.890000000000000E-002   -9.452106346966117E-009
 -2.880000000000000E-002   -1.172935626682488E-008
 -2.870000000000000E-002   -1.371604915483141E-008
 -2.860000000000000E-002   -1.530641226384648E-008
 -2.850000000000000E-002   -1.640724608466066E-008
 -2.840000000000000E-002   -1.694231563056291E-008
 -2.830000000000000E-002   -1.685583020706103E-008
 -2.820000000000000E-002   -1.611488926400770E-008
 -2.810000000000000E-002   -1.471085576471881E-008
 -2.800000000000000E-002   -1.265969148049912E-008
 -2.790000000000000E-002   -1.000134782519824E-008
 -2.780000000000000E-002   -6.798348036217081E-009
 -2.770000000000000E-002   -3.133717575288179E-009
 -2.760000000000000E-002    8.915871354551676E-010
 -2.750000000000000E-002    5.161610446601479E-009
 -2.740000000000000E-002    9.548578446733393E-009
 -2.730000000000000E-002    1.391624693726658E-008
 -2.720000000000000E-002    1.812336396983506E-008
 -2.710000000000000E-002    2.202721432427863E-008
 -2.700000000000000E-002    2.548722887629073E-008
 -2.690000000000000E-002    2.836864684573640E-008
 -2.680000000000000E-002    3.054621065642289E-008
 -2.670000000000000E-002    3.190786424749526E-008
 -2.660000000000000E-002    3.235841118199816E-008
 -2.650000000000000E-002    3.182307652965621E-008
 -2.640000000000000E-002    3.025090298365266E-008
 -2.630000000000000E-002    2.761789426063769E-008
 -2.620000000000000E-002    2.392982496088759E-008
 -2.610000000000000E-002    1.922461076536063E-008
 -2.600000000000000E-002    1.357412635380115E-008
 -2.590000000000000E-002    7.085339310917645E-009
 -2.580000000000000E-002   -9.938289074356250E-011
 -2.570000000000000E-002   -7.802988392703106E-009
 -2.560000000000000E-002   -1.581565916075816E-008
 -2.550000000000000E-002   -2.389815914031468E-008
 -2.540000000000000E-002   -3.178680468437904E-008
 -2.530000000000000E-002   -3.920023626228454E-008
 -2.520000000000000E-002   -4.584808500403495E-008
 -2.510000000000000E-002   -5.144150681453692E-008
 -2.500000000000000E-002   -5.570542363760786E-008
 -2.490000000000000E-002   -5.839210185671266E-008
 -2.480000000000000E-002   -5.929547514771564E-008
 -2.470000000000000E-002   -5.826546650791992E-008
 -2.460000000000000E-002   -5.522130891416133E-008
 -2.450000000000000E-002   -5.016277451006014E-008
 -2.440000000000000E-002   -4.317821091539515E-008
 -2.430000000000000E-002   -3.444825684707241E-008
 -2.420000000000000E-002   -2.424437581769538E-008
 -2.410000000000000E-002   -1.292159590861209E-008
 -2.400000000000000E-002   -9.052421418100426E-010
 -2.390000000000000E-002    1.132804259191966E-008
 -2.380000000000000E-002    2.327419977550793E-008
 -2.370000000000000E-002    3.442925891126939E-008
 -2.360000000000000E-002    4.431870273134107E-008
 -2.350000000000000E-002    5.252657151990284E-008
 -2.340000000000000E-002    5.872206712565783E-008
 -2.330000000000000E-002    6.268138165457634E-008
 -2.320000000000000E-002    6.430272699874914E-008
 -2.310000000000000E-002    6.361293562039348E-008
 -2.300000000000000E-002    6.076460345798096E-008
 -2.290000000000000E-002    5.602342094594468E-008
 -2.280000000000000E-002    4.974614396079255E-008
 -2.270000000000000E-002    4.235037292458073E-008
 -2.260000000000000E-002    3.427802164909763E-008
 -2.250000000000000E-002    2.595486116541351E-008
 -2.240000000000000E-002    1.774890711386277E-008
 -2.230000000000000E-002    9.930475020861989E-009
 -2.220000000000000E-002    2.636701976695835E-009
 -2.210000000000000E-002   -4.157120080494448E-009
 -2.200000000000000E-002   -1.065746002664974E-008
 -2.190000000000000E-002   -1.726257428594812E-008
 -2.180000000000000E-002   -2.456213274875587E-008
 -2.170000000000000E-002   -3.332684134638989E-008
 -2.160000000000000E-002   -4.448895394078759E-008
 -2.150000000000000E-002   -5.911551017268888E-008
 -2.140000000000000E-002   -7.837629816913257E-008
 -2.130000000000000E-002   -1.035089603319259E-007
 -2.120000000000000E-002   -1.357837873029442E-007
 -2.110000000000000E-002   -1.764708061196513E-007
 -2.100000000000000E-002   -2.268110083369258E-007
 -2.090000000000000E-002   -2.879939241555650E-007
 -2.080000000000000E-002   -3.611426684709865E-007
 -2.070000000000000E-002   -4.473071996870789E-007
 -2.060000000000000E-002   -5.474658355878542E-007
 -2.050000000000000E-002   -6.625346568269817E-007
 -2.040000000000000E-002   -7.933833174081470E-007
 -2.030000000000000E-002   -9.408555473880055E-007
 -2.020000000000000E-002   -1.105792224838243E-006
 -2.010000000000000E-002   -1.289054195054768E-006
 -2.000000000000000E-002   -1.491542261118428E-006
 -1.990000000000000E-002   -1.714211375901777E-006
 -1.980000000000000E-002   -1.958075906645666E-006
 -1.970000000000000E-002   -2.224205923873541E-006
 -1.960000000000000E-002   -2.513711205708889E-006
 -1.950000000000000E-002   -2.827713155523128E-006
 -1.940000000000000E-002   -3.167306955276838E-006
 -1.930000000000000E-002   -3.533514823009246E-006
 -1.920000000000000E-002   -3.927235415674149E-006
 -1.910000000000000E-002   -4.349189649865653E-006
 -1.900000000000000E-002   -4.799876361479933E-006
 -1.890000000000000E-002   -5.279535954713386E-006
 -1.880000000000000E-002   -5.788131522883371E-006
 -1.870000000000000E-002   -6.325352388389830E-006
 -1.860000000000000E-002   -6.890645735141872E-006
 -1.850000000000000E-002   -7.483271610051025E-006
 -1.840000000000000E-002   -8.102391993039016E-006
 -1.830000000000000E-002   -8.747180006943168E-006
 -1.820000000000000E-002   -9.416954796737336E-006
 -1.810000000000000E-002   -1.011132396413847E-005
 -1.800000000000000E-002   -1.083033250246415E-005
 -1.790000000000000E-002   -1.157460117345816E-005
 -1.780000000000000E-002   -1.234544787589346E-005
 -1.770000000000000E-002   -1.314497808112727E-005
 -1.760000000000000E-002   -1.397613395829017E-005
 -1.750000000000000E-002   -1.484270155991728E-005
 -1.740000000000000E-002   -1.574926206907712E-005
 -1.730000000000000E-002   -1.670110646623542E-005
 -1.720000000000000E-002   -1.770408983092737E-005
 -1.710000000000000E-002   -1.876446605230686E-005
 -1.700000000000000E-002   -1.988868736574828E-005
 -1.690000000000000E-002   -2.108320170982630E-005
 -1.680000000000000E-002   -2.235425947248728E-005
 -1.670000000000000E-002   -2.370773549762149E-005
 -1.660000000000000E-002   -2.514899864128366E-005
 -1.650000000000000E-002   -2.668282431888357E-005
 -1.640000000000000E-002   -2.831337084519638E-005
 -1.630000000000000E-002   -3.004421494985419E-005
 -1.620000000000000E-002   -3.187845324274623E-005
 -1.610000000000000E-002   -3.381885316022311E-005
 -1.600000000000000E-002   -3.586805684361766E-005
 -1.590000000000000E-002   -3.802880969522552E-005
 -1.580000000000000E-002   -4.030419203153704E-005
 -1.570000000000000E-002   -4.269786733674329E-005
 -1.560000000000000E-002   -4.521428632038849E-005
 -1.550000000000000E-002   -4.785886470593982E-005
 -1.540000000000000E-002   -5.063808549573511E-005
 -1.530000000000000E-002   -5.355956989193812E-005
 -1.520000000000000E-002   -5.663205055134724E-005
 -1.510000000000000E-002   -5.986528316426539E-005
 -1.500000000000000E-002   -6.326992149989460E-005
 -1.490000000000000E-002   -6.685731669286349E-005
 -1.480000000000000E-002   -7.063930345625973E-005
 -1.470000000000000E-002   -7.462795376728047E-005
 -1.460000000000000E-002   -7.883534281542438E-005
 -1.450000000000000E-002   -8.327336005785342E-005
 -1.440000000000000E-002   -8.795355580902591E-005
 -1.430000000000000E-002   -9.288703207599132E-005
 -1.420000000000000E-002   -9.808442965668879E-005
 -1.410000000000000E-002   -1.035559696702498E-004
 -1.400000000000000E-002   -1.093116012563140E-004
 -1.390000000000000E-002   -1.153611995085540E-004
 -1.380000000000000E-002   -1.217148078365875E-004
 -1.370000000000000E-002   -1.283829768485908E-004
 -1.360000000000000E-002   -1.353770525673420E-004
 -1.350000000000000E-002   -1.427095067688019E-004
 -1.340000000000000E-002   -1.503942186340428E-004
 -1.330000000000000E-002   -1.584467091082918E-004
 -1.320000000000000E-002   -1.668843154846849E-004
 -1.310000000000000E-002   -1.757262518466203E-004
 -1.300000000000000E-002   -1.849935741395699E-004
 -1.290000000000000E-002   -1.947091045443354E-004
 -1.280000000000000E-002   -2.048971757926228E-004
 -1.270000000000000E-002   -2.155833817901885E-004
 -1.260000000000000E-002   -2.267942696458159E-004
 -1.250000000000000E-002   -2.385569158354709E-004
 -1.240000000000000E-002   -2.508986228674019E-004
 -1.230000000000000E-002   -2.638466065212440E-004
 -1.220000000000000E-002   -2.774277034625587E-004
 -1.210000000000000E-002   -2.916682028134944E-004
 -1.200000000000000E-002   -3.065938153144232E-004
 -1.190000000000000E-002   -3.222297035465234E-004
 -1.180000000000000E-002   -3.386006292829826E-004
 -1.170000000000000E-002   -3.557312474537884E-004
 -1.160000000000000E-002   -3.736464301215862E-004
 -1.150000000000000E-002   -3.923717678597240E-004
 -1.140000000000000E-002   -4.119339204444909E-004
 -1.130000000000000E-002   -4.323611545667454E-004
 -1.120000000000000E-002   -4.536836882577671E-004
 -1.110000000000000E-002   -4.759341090121452E-004
 -1.100000000000000E-002   -4.991475557385525E-004
 -1.090000000000000E-002   -5.233619745462843E-004
 -1.080000000000000E-002   -5.486180238286983E-004
 -1.070000000000000E-002   -5.749591133923196E-004
 -1.060000000000000E-002   -6.024310886531374E-004
 -1.050000000000000E-002   -6.310820853426256E-004
 -1.040000000000000E-002   -6.609619029448809E-004
 -1.030000000000000E-002   -6.921219477293749E-004
 -1.020000000000000E-002   -7.246145658376284E-004
 -1.010000000000000E-002   -7.584928556339186E-004
 -1.000000000000000E-002   -7.938102817859679E-004
 -9.899999999999999E-003   -8.306203887110092E-004
 -9.800000000000000E-003   -8.689768502358874E-004
 -9.699999999999999E-003   -9.089332079021109E-004
 -9.599999999999999E-003   -9.505431574453166E-004
 -9.500000000000000E-003   -9.938604690987811E-004
 -9.399999999999999E-003   -1.038939510534177E-003
 -9.299999999999999E-003   -1.085835381884922E-003
 -9.200000000000000E-003   -1.134604422894843E-003
 -9.099999999999999E-003   -1.185304124067052E-003
 -8.999999999999999E-003   -1.237993953510420E-003
 -8.900000000000000E-003   -1.292735279262846E-003
 -8.799999999999999E-003   -1.349591876721787E-003
 -8.699999999999999E-003   -1.408629703773312E-003
 -8.600000000000000E-003   -1.469917108821284E-003
 -8.499999999999999E-003   -1.533524985838356E-003
 -8.399999999999999E-003   -1.599526222545712E-003
 -8.300000000000000E-003   -1.667995859032738E-003
 -8.199999999999999E-003   -1.739010673368703E-003
 -8.100000000000000E-003   -1.812648831454085E-003
 -8.000000000000000E-003   -1.888989686299317E-003
 -7.899999999999999E-003   -1.968113447684580E-003
 -7.800000000000000E-003   -2.050100845691222E-003
 -7.699999999999999E-003   -2.135033138076089E-003
 -7.599999999999999E-003   -2.222991380019590E-003
 -7.499999999999999E-003   -2.314057289400687E-003
 -7.399999999999999E-003   -2.408312302197235E-003
 -7.299999999999999E-003   -2.505838256081822E-003
 -7.199999999999999E-003   -2.606716944123239E-003
 -7.100000000000000E-003   -2.711030997540942E-003
 -6.999999999999999E-003   -2.818863228761819E-003
 -6.899999999999999E-003   -2.930297605832203E-003
 -6.800000000000000E-003   -3.045418679163220E-003
 -6.699999999999999E-003   -3.164312411939882E-003
 -6.599999999999999E-003   -3.287065689340983E-003
 -6.499999999999999E-003   -3.413766480225979E-003
 -6.399999999999999E-003   -3.544503616694175E-003
 -6.299999999999999E-003   -3.679366928126742E-003
 -6.199999999999999E-003   -3.818446319901834E-003
 -6.100000000000000E-003   -3.961832137196715E-003
 -5.999999999999999E-003   -4.109614798560366E-003
 -5.899999999999999E-003   -4.261883225729983E-003
 -5.800000000000000E-003   -4.418725429322579E-003
 -5.699999999999999E-003   -4.580228217055445E-003
 -5.599999999999999E-003   -4.746476328688313E-003
 -5.499999999999999E-003   -4.917552009062955E-003
 -5.399999999999999E-003   -5.093535097705710E-003
 -5.299999999999999E-003   -5.274502798365135E-003
 -5.199999999999999E-003   -5.460529555808743E-003
 -5.099999999999999E-003   -5.651686903003628E-003
 -4.999999999999999E-003   -5.848042951829491E-003
 -4.899999999999999E-003   -6.049663659360453E-003
 -4.799999999999999E-003   -6.256611680787566E-003
 -4.699999999999999E-003   -6.468946792691115E-003
 -4.599999999999999E-003   -6.686726078735581E-003
 -4.499999999999999E-003   -6.910003325415096E-003
 -4.399999999999999E-003   -7.138829310444651E-003
 -4.299999999999999E-003   -7.373251170029298E-003
 -4.199999999999999E-003   -7.613311816103873E-003
 -4.099999999999999E-003   -7.859051254687504E-003
 -3.999999999999999E-003   -8.110503966949347E-003
 -3.899999999999999E-003   -8.367699368300029E-003
 -3.799999999999999E-003   -8.630661314408617E-003
 -3.699999999999999E-003   -8.899407788100971E-003
 -3.599999999999999E-003   -9.173950010472675E-003
 -3.499999999999999E-003   -9.454292669003422E-003
 -3.399999999999999E-003   -9.740430908944690E-003
 -3.299999999999999E-003   -1.003235258619847E-002
 -3.199999999999999E-003   -1.033003733338356E-002
 -3.099999999999999E-003   -1.063345519099984E-002
 -2.999999999999999E-003   -1.094256622213412E-002
 -2.899999999999999E-003   -1.125732104703944E-002
 -2.799999999999999E-003   -1.157765923450591E-002
 -2.699999999999999E-003   -1.190351127331308E-002
 -2.599999999999999E-003   -1.223479389724411E-002
 -2.499999999999999E-003   -1.257141365923610E-002
 -2.399999999999999E-003   -1.291326608117807E-002
 -2.299999999999999E-003   -1.326023299195119E-002
 -2.199999999999999E-003   -1.361218338183643E-002
 -2.099999999999999E-003   -1.396897396844835E-002
 -1.999999999999999E-003   -1.433044826270652E-002
 -1.899999999999999E-003   -1.469643261308005E-002
 -1.799999999999999E-003   -1.506674168727557E-002
 -1.699999999999999E-003   -1.544117124644692E-002
 -1.599999999999999E-003   -1.581950446939352E-002
 -1.499999999999999E-003   -1.620150374186601E-002
 -1.399999999999999E-003   -1.658691510473526E-002
 -1.299999999999999E-003   -1.697546652643685E-002
 -1.199999999999999E-003   -1.736686742613567E-002
 -1.099999999999999E-003   -1.776080780152402E-002
 -9.999999999999989E-004   -1.815695756093685E-002
 -8.999999999999990E-004   -1.855496362710315E-002
 -7.999999999999990E-004   -1.895445553621105E-002
 -6.999999999999989E-004   -1.935503699571217E-002
 -5.999999999999990E-004   -1.975629436383287E-002
 -4.999999999999989E-004   -2.015779040670785E-002
 -3.999999999999989E-004   -2.055906334115392E-002
 -2.999999999999989E-004   -2.095963205638050E-002
 -1.999999999999989E-004   -2.135899031936704E-002
 -9.999999999999892E-005   -2.175660766954702E-002
  1.084202172485504E-018   -2.215193043637626E-002
  1.000000000000011E-004   -2.254438148175051E-002
  2.000000000000011E-004   -2.293335375289841E-002
  3.000000000000011E-004   -2.331821789562085E-002
  4.000000000000011E-004   -2.369831477891860E-002
  5.000000000000011E-004   -2.407295996402692E-002
  6.000000000000011E-004   -2.444143492087619E-002
  7.000000000000011E-004   -2.480299519989071E-002
  8.000000000000011E-004   -2.515686369697354E-002
  9.000000000000012E-004   -2.550223316833135E-002
  1.000000000000001E-003   -2.583826213431046E-002
  1.100000000000001E-003   -2.616407823840285E-002
  1.200000000000001E-003   -2.647877539824550E-002
  1.300000000000001E-003   -2.678141434419101E-002
  1.400000000000001E-003   -2.707102240655979E-002
  1.500000000000001E-003   -2.734659594731272E-002
  1.600000000000001E-003   -2.760709508241749E-002
  1.700000000000001E-003   -2.785144951477320E-002
  1.800000000000001E-003   -2.807855525569718E-002
  1.900000000000001E-003   -2.828727647382906E-002
  2.000000000000001E-003   -2.847644415416697E-002
  2.100000000000001E-003   -2.864485677789965E-002
  2.200000000000001E-003   -2.879128344967034E-002
  2.300000000000001E-003   -2.891445612942076E-002
  2.400000000000001E-003   -2.901307725476248E-002
  2.500000000000001E-003   -2.908581492017878E-002
  2.600000000000001E-003   -2.913130245621953E-002
  2.700000000000001E-003   -2.914814435906900E-002
  2.800000000000001E-003   -2.913490595799151E-002
  2.900000000000001E-003   -2.909012202597866E-002
  3.000000000000001E-003   -2.901229251959830E-002
  3.100000000000001E-003   -2.889988313465879E-002
  3.200000000000001E-003   -2.875132594130655E-002
  3.300000000000001E-003   -2.856501833430083E-002
  3.400000000000001E-003   -2.833932554883280E-002
  3.500000000000001E-003   -2.807257878323003E-002
  3.600000000000001E-003   -2.776307712085072E-002
  3.700000000000001E-003   -2.740908598973114E-002
  3.800000000000001E-003   -2.700884317319710E-002
  3.900000000000001E-003   -2.656055690697042E-002
  4.000000000000001E-003   -2.606240297561293E-002
  4.100000000000001E-003   -2.551253243021521E-002
  4.200000000000001E-003   -2.490907053619637E-002
  4.300000000000001E-003   -2.425011381035110E-002
  4.400000000000001E-003   -2.353373879312896E-002
  4.500000000000001E-003   -2.275799409266956E-002
  4.600000000000002E-003   -2.192091150803097E-002
  4.700000000000001E-003   -2.102049899090885E-002
  4.800000000000001E-003   -2.005474654941838E-002
  4.900000000000002E-003   -1.902162435198991E-002
  5.000000000000001E-003   -1.791908792929146E-002
  5.100000000000001E-003   -1.674507108502123E-002
  5.200000000000001E-003   -1.549749795993077E-002
  5.300000000000002E-003   -1.417427730193249E-002
  5.400000000000001E-003   -1.277330474817531E-002
  5.500000000000001E-003   -1.129246796894255E-002
  5.600000000000002E-003   -9.729644913138026E-003
  5.700000000000001E-003   -8.082707032844853E-003
  5.800000000000001E-003   -6.349522946402817E-003
  5.900000000000002E-003   -4.527958423337768E-003
  6.000000000000001E-003   -2.615880913260133E-003
  6.100000000000001E-003   -6.111605788130363E-004
  6.200000000000002E-003    1.488326048945757E-003
  6.300000000000002E-003    3.684692358612422E-003
  6.400000000000001E-003    5.980042782254400E-003
  6.500000000000001E-003    8.376467596124943E-003
  6.600000000000002E-003    1.087603981689996E-002
  6.700000000000001E-003    1.348081535013041E-002
  6.800000000000001E-003    1.619282841197712E-002
  6.900000000000002E-003    1.901409163015423E-002
  7.000000000000001E-003    2.194659027676810E-002
  7.100000000000001E-003    2.499228392708009E-002
  7.200000000000002E-003    2.815309811003755E-002
  7.300000000000002E-003    3.143093114440167E-002
  7.400000000000001E-003    3.482763894301515E-002
  7.500000000000001E-003    3.834504280181733E-002
  7.600000000000002E-003    4.198491641367238E-002
  7.700000000000001E-003    4.574899324785307E-002
  7.800000000000001E-003    4.963895489123767E-002
  7.900000000000001E-003    5.365642805504089E-002
  8.000000000000002E-003    5.780298283235143E-002
  8.100000000000001E-003    6.208013098837591E-002
  8.200000000000001E-003    6.648931394284245E-002
  8.300000000000002E-003    7.103191391309781E-002
  8.400000000000001E-003    7.570923258568929E-002
  8.500000000000002E-003    8.052249875311285E-002
  8.600000000000002E-003    8.547286445705853E-002
  8.700000000000001E-003    9.056140116021498E-002
  8.800000000000002E-003    9.578908756326404E-002
  8.900000000000002E-003    0.101156822053496     
  9.000000000000001E-003    0.106665408300712     
  9.100000000000002E-003    0.112315559012696     
  9.200000000000002E-003    0.118107880957393     
  9.300000000000001E-003    0.124042879888685     
  9.400000000000002E-003    0.130120968418434     
  9.500000000000001E-003    0.136342430320393     
  9.600000000000001E-003    0.142707453239865     
  9.700000000000002E-003    0.149216117501252     
  9.800000000000001E-003    0.155868374824833     
  9.900000000000001E-003    0.162664048349961     
  1.000000000000000E-002    0.169602841826830     
  1.010000000000000E-002    0.176684319799972     
  1.020000000000000E-002    0.183907930405589     
  1.030000000000000E-002    0.191272983828838     
  1.040000000000000E-002    0.198778635764362     
  1.050000000000000E-002    0.206423906706343     
  1.060000000000000E-002    0.214207670720010     
  1.070000000000000E-002    0.222128660272143     
  1.080000000000000E-002    0.230185468389307     
  1.090000000000000E-002    0.238376487668040     
  1.100000000000000E-002    0.246699997824110     
  1.110000000000000E-002    0.255154121382434     
  1.120000000000000E-002    0.263736799466217     
  1.130000000000000E-002    0.272445813170002     
  1.140000000000000E-002    0.281278807304704     
  1.150000000000000E-002    0.290233209136623     
  1.160000000000000E-002    0.299306349182945     
  1.170000000000000E-002    0.308495308757006     
  1.180000000000000E-002    0.317797038713351     
  1.190000000000000E-002    0.327208331703138     
  1.200000000000000E-002    0.336725772312781     
  1.210000000000000E-002    0.346345791639122     
  1.220000000000000E-002    0.356064636766452     
  1.230000000000000E-002    0.365878373134162     
  1.240000000000000E-002    0.375782889065118     
  1.250000000000000E-002    0.385773893942379     
  1.260000000000000E-002    0.395846925055882     
  1.270000000000000E-002    0.405997336692091     
  1.280000000000000E-002    0.416220291114605     
  1.290000000000000E-002    0.426510760197572     
  1.300000000000000E-002    0.436863571010023     
  1.310000000000000E-002    0.447273327876330     
  1.320000000000000E-002    0.457734520397791     
  1.330000000000000E-002    0.468241386992110     
  1.340000000000000E-002    0.478787999081803     
  1.350000000000000E-002    0.489368350985063     
  1.360000000000000E-002    0.499976195167601     
  1.370000000000000E-002    0.510605045207993     
  1.380000000000000E-002    0.521248400230632     
  1.390000000000000E-002    0.531899429723639     
  1.400000000000000E-002    0.542551279219249     
  1.410000000000000E-002    0.553196876855624     
  1.420000000000000E-002    0.563828994656663     
  1.430000000000000E-002    0.574440214588342     
  1.440000000000000E-002    0.585023025964203     
  1.450000000000000E-002    0.595569752479449     
  1.460000000000000E-002    0.606072525575336     
  1.470000000000000E-002    0.616523392578721     
  1.480000000000000E-002    0.626914301031169     
  1.490000000000000E-002    0.637236985838781     
  1.500000000000000E-002    0.647483046429230     
  1.510000000000000E-002    0.657644040568448     
  1.520000000000000E-002    0.667711328377306     
  1.530000000000000E-002    0.677676222850254     
  1.540000000000000E-002    0.687529975992833     
  1.550000000000000E-002    0.697263582936538     
  1.560000000000000E-002    0.706868122059958     
  1.570000000000000E-002    0.716334428278792     
  1.580000000000000E-002    0.725653426751869     
  1.590000000000000E-002    0.734815817715763     
  1.600000000000000E-002    0.743812309258247     
  1.610000000000000E-002    0.752633542214424     
  1.620000000000000E-002    0.761270087170633     
  1.630000000000000E-002    0.769712501905070     
  1.640000000000000E-002    0.777951340570422     
  1.650000000000000E-002    0.785976988174660     
  1.660000000000000E-002    0.793779962004327     
  1.670000000000000E-002    0.801350632030842     
  1.680000000000000E-002    0.808679505080888     
  1.690000000000000E-002    0.815756965119293     
  1.700000000000000E-002    0.822573494855870     
  1.710000000000000E-002    0.829119535606271     
  1.720000000000000E-002    0.835385608700918     
  1.730000000000000E-002    0.841362203911715     
  1.740000000000000E-002    0.847039963853288     
  1.750000000000000E-002    0.852409499806855     
  1.760000000000000E-002    0.857461559761656     
  1.770000000000000E-002    0.862186874247384     
  1.780000000000000E-002    0.866576379968567     
  1.790000000000000E-002    0.870621010809528     
  1.800000000000000E-002    0.874311848181300     
  1.810000000000000E-002    0.877640069583955     
  1.820000000000000E-002    0.880596949466157     
  1.830000000000000E-002    0.883173960633631     
  1.840000000000000E-002    0.885362724438405     
  1.850000000000000E-002    0.887154961396562     
  1.860000000000000E-002    0.888542565147179     
  1.870000000000000E-002    0.889517604265437     