 -4.000000000000000E-002    0.000000000000000E+000
 -3.990000000000000E-002    0.000000000000000E+000
 -3.980000000000000E-002    0.000000000000000E+000
 -3.970000000000000E-002    0.000000000000000E+000
 -3.960000000000000E-002    0.000000000000000E+000
 -3.950000000000000E-002    0.000000000000000E+000
 -3.940000000000000E-002    0.000000000000000E+000
 -3.930000000000000E-002    0.000000000000000E+000
 -3.920000000000000E-002    0.000000000000000E+000
 -3.910000000000000E-002    0.000000000000000E+000
 -3.900000000000000E-002    0.000000000000000E+000
 -3.890000000000000E-002    0.000000000000000E+000
 -3.880000000000000E-002    0.000000000000000E+000
 -3.870000000000000E-002    0.000000000000000E+000
 -3.860000000000000E-002    0.000000000000000E+000
 -3.850000000000000E-002    0.000000000000000E+000
 -3.840000000000000E-002    0.000000000000000E+000
 -3.830000000000000E-002    0.000000000000000E+000
 -3.820000000000000E-002    0.000000000000000E+000
 -3.810000000000000E-002    0.000000000000000E+000
 -3.800000000000000E-002    0.000000000000000E+000
 -3.790000000000000E-002    0.000000000000000E+000
 -3.780000000000000E-002    0.000000000000000E+000
 -3.770000000000000E-002    0.000000000000000E+000
 -3.760000000000000E-002    0.000000000000000E+000
 -3.750000000000000E-002    0.000000000000000E+000
 -3.740000000000000E-002    0.000000000000000E+000
 -3.730000000000000E-002    0.000000000000000E+000
 -3.720000000000000E-002    0.000000000000000E+000
 -3.710000000000000E-002    0.000000000000000E+000
 -3.700000000000000E-002    0.000000000000000E+000
 -3.690000000000000E-002    0.000000000000000E+000
 -3.680000000000000E-002    0.000000000000000E+000
 -3.670000000000000E-002    0.000000000000000E+000
 -3.660000000000000E-002    0.000000000000000E+000
 -3.650000000000000E-002    0.000000000000000E+000
 -3.640000000000000E-002    0.000000000000000E+000
 -3.630000000000000E-002    0.000000000000000E+000
 -3.620000000000000E-002    0.000000000000000E+000
 -3.610000000000000E-002    0.000000000000000E+000
 -3.600000000000000E-002    0.000000000000000E+000
 -3.590000000000000E-002    0.000000000000000E+000
 -3.580000000000000E-002    0.000000000000000E+000
 -3.570000000000000E-002    0.000000000000000E+000
 -3.560000000000000E-002    0.000000000000000E+000
 -3.550000000000000E-002    0.000000000000000E+000
 -3.540000000000000E-002    0.000000000000000E+000
 -3.530000000000000E-002    0.000000000000000E+000
 -3.520000000000000E-002    0.000000000000000E+000
 -3.510000000000000E-002    0.000000000000000E+000
 -3.500000000000000E-002    0.000000000000000E+000
 -3.490000000000000E-002    0.000000000000000E+000
 -3.480000000000000E-002    0.000000000000000E+000
 -3.470000000000000E-002    0.000000000000000E+000
 -3.460000000000000E-002    0.000000000000000E+000
 -3.450000000000000E-002    0.000000000000000E+000
 -3.440000000000000E-002    0.000000000000000E+000
 -3.430000000000000E-002    0.000000000000000E+000
 -3.420000000000000E-002    0.000000000000000E+000
 -3.410000000000000E-002    0.000000000000000E+000
 -3.400000000000000E-002    0.000000000000000E+000
 -3.390000000000000E-002    0.000000000000000E+000
 -3.380000000000000E-002    0.000000000000000E+000
 -3.370000000000000E-002    0.000000000000000E+000
 -3.360000000000000E-002    0.000000000000000E+000
 -3.350000000000000E-002    0.000000000000000E+000
 -3.340000000000000E-002    0.000000000000000E+000
 -3.330000000000000E-002    0.000000000000000E+000
 -3.320000000000000E-002    0.000000000000000E+000
 -3.310000000000000E-002    0.000000000000000E+000
 -3.300000000000000E-002    0.000000000000000E+000
 -3.290000000000000E-002    0.000000000000000E+000
 -3.280000000000000E-002    0.000000000000000E+000
 -3.270000000000000E-002    0.000000000000000E+000
 -3.260000000000000E-002    0.000000000000000E+000
 -3.250000000000000E-002    0.000000000000000E+000
 -3.240000000000000E-002    0.000000000000000E+000
 -3.230000000000000E-002    0.000000000000000E+000
 -3.220000000000000E-002    0.000000000000000E+000
 -3.210000000000000E-002    0.000000000000000E+000
 -3.200000000000000E-002    0.000000000000000E+000
 -3.190000000000000E-002    0.000000000000000E+000
 -3.180000000000000E-002    0.000000000000000E+000
 -3.170000000000000E-002    0.000000000000000E+000
 -3.160000000000000E-002    0.000000000000000E+000
 -3.150000000000000E-002    0.000000000000000E+000
 -3.140000000000000E-002    0.000000000000000E+000
 -3.130000000000000E-002    0.000000000000000E+000
 -3.120000000000000E-002    0.000000000000000E+000
 -3.110000000000000E-002    0.000000000000000E+000
 -3.100000000000000E-002    0.000000000000000E+000
 -3.090000000000000E-002    0.000000000000000E+000
 -3.080000000000000E-002    0.000000000000000E+000
 -3.070000000000000E-002    0.000000000000000E+000
 -3.060000000000000E-002    0.000000000000000E+000
 -3.050000000000000E-002    0.000000000000000E+000
 -3.040000000000000E-002    0.000000000000000E+000
 -3.030000000000000E-002    0.000000000000000E+000
 -3.020000000000000E-002    0.000000000000000E+000
 -3.010000000000000E-002    0.000000000000000E+000
 -3.000000000000000E-002    0.000000000000000E+000
 -2.990000000000000E-002    0.000000000000000E+000
 -2.980000000000000E-002    1.401118706867382E-047
 -2.970000000000000E-002    2.446020797745305E-047
 -2.960000000000000E-002    2.446020797745305E-047
 -2.950000000000000E-002    1.401118706867382E-047
 -2.940000000000000E-002   -2.482724809554188E-047
 -2.930000000000000E-002   -5.177053495661136E-047
 -2.920000000000000E-002   -8.475906686119185E-047
 -2.910000000000000E-002   -1.947808520223305E-046
 -2.900000000000000E-002   -2.697608093459036E-046
 -2.890000000000000E-002   -3.454106780406375E-046
 -2.880000000000000E-002   -2.592486076751719E-046
 -2.870000000000000E-002   -1.742326528059569E-047
 -2.860000000000000E-002    5.291341197587288E-046
 -2.850000000000000E-002    1.693617701323829E-045
 -2.840000000000000E-002    2.964524034895135E-045
 -2.830000000000000E-002    5.351926620979549E-045
 -2.820000000000000E-002    8.637742398774501E-045
 -2.810000000000000E-002    1.237324762188398E-044
 -2.800000000000000E-002    1.504755600748821E-044
 -2.790000000000000E-002    1.625642488778983E-044
 -2.780000000000000E-002    1.336529596781786E-044
 -2.770000000000000E-002    2.182858898417962E-045
 -2.760000000000000E-002   -2.236679882269633E-044
 -2.750000000000000E-002   -6.715466555430823E-044
 -2.740000000000000E-002   -1.370473768467693E-043
 -2.730000000000000E-002   -2.361682726379405E-043
 -2.720000000000000E-002   -3.620923560269912E-043
 -2.710000000000000E-002   -5.037131833253492E-043
 -2.700000000000000E-002   -6.330156512270756E-043
 -2.690000000000000E-002   -7.016566707153800E-043
 -2.680000000000000E-002   -6.306842546598865E-043
 -2.670000000000000E-002   -3.113400549631373E-043
 -2.660000000000000E-002    3.917550321395955E-043
 -2.650000000000000E-002    1.628767180090120E-042
 -2.640000000000000E-002    3.530802293329497E-042
 -2.630000000000000E-002    6.161787077832748E-042
 -2.620000000000000E-002    9.448491158403440E-042
 -2.610000000000000E-002    1.308225048843717E-041
 -2.600000000000000E-002    1.642221709375140E-041
 -2.590000000000000E-002    1.839380154294499E-041
 -2.580000000000000E-002    1.742774678240318E-041
 -2.570000000000000E-002    1.147600264020649E-041
 -2.560000000000000E-002   -1.845947408532430E-042
 -2.550000000000000E-002   -2.494014712108388E-041
 -2.540000000000000E-002   -5.968322160949581E-041
 -2.530000000000000E-002   -1.066445281091940E-040
 -2.520000000000000E-002   -1.640974361254292E-040
 -2.510000000000000E-002   -2.269018445280914E-040
 -2.500000000000000E-002   -2.854442625515653E-040
 -2.490000000000000E-002   -3.248854701041725E-040
 -2.480000000000000E-002   -3.250403560547967E-040
 -2.470000000000000E-002   -2.612490608095126E-040
 -2.460000000000000E-002   -1.065687303186404E-040
 -2.450000000000000E-002    1.645265370860810E-040
 -2.440000000000000E-002    5.709412543819592E-040
 -2.430000000000000E-002    1.118598658468983E-039
 -2.420000000000000E-002    1.793584136432801E-039
 -2.410000000000000E-002    2.555776145553896E-039
 -2.400000000000000E-002    3.334090897966521E-039
 -2.390000000000000E-002    4.024344747648480E-039
 -2.380000000000000E-002    4.490229133513671E-039
 -2.370000000000000E-002    4.567042715226915E-039
 -2.360000000000000E-002    4.066700265273734E-039
 -2.350000000000000E-002    2.781517273221141E-039
 -2.340000000000000E-002    4.839277462135288E-040
 -2.330000000000000E-002   -3.079725902152212E-039
 -2.320000000000000E-002   -8.199973766957131E-039
 -2.310000000000000E-002   -1.521233965845218E-038
 -2.300000000000000E-002   -2.448695184388486E-038
 -2.290000000000000E-002   -3.637346756773242E-038
 -2.280000000000000E-002   -5.106567892776982E-038
 -2.270000000000000E-002   -6.834559418574882E-038
 -2.260000000000000E-002   -8.717303888774579E-038
 -2.250000000000000E-002   -1.051104513366230E-037
 -2.240000000000000E-002   -1.176197844624274E-037
 -2.230000000000000E-002   -1.173426159290613E-037
 -2.220000000000000E-002   -9.357306545494224E-038
 -2.210000000000000E-002   -3.224428639143382E-038
 -2.200000000000000E-002    8.315065885359001E-038
 -2.190000000000000E-002    2.692301140561832E-037
 -2.180000000000000E-002    5.385581934621117E-037
 -2.170000000000000E-002    8.934062194008008E-037
 -2.160000000000000E-002    1.317594966332222E-036
 -2.150000000000000E-002    1.767182447641440E-036
 -2.140000000000000E-002    2.161571086336472E-036
 -2.130000000000000E-002    2.377530935388633E-036
 -2.120000000000000E-002    2.249501849978861E-036
 -2.110000000000000E-002    1.580086539320581E-036
 -2.100000000000000E-002    1.645538458075225E-037
 -2.090000000000000E-002   -2.167927295881277E-036
 -2.080000000000000E-002   -5.496012628428585E-036
 -2.070000000000000E-002   -9.734434631838161E-036
 -2.060000000000000E-002   -1.455757226373895E-035
 -2.050000000000000E-002   -1.933316266838988E-035
 -2.040000000000000E-002   -2.308680015863414E-035
 -2.030000000000000E-002   -2.452194994855908E-035
 -2.020000000000000E-002   -2.212064012664810E-035
 -2.010000000000000E-002   -1.434471967475172E-035
 -2.000000000000000E-002    5.506536157562937E-038
 -1.990000000000000E-002    2.163581073421852E-035
 -1.980000000000000E-002    4.980690665954733E-035
 -1.970000000000000E-002    8.239680966506759E-035
 -1.960000000000000E-002    1.153484103580978E-034
 -1.950000000000000E-002    1.426716757872862E-034
 -1.940000000000000E-002    1.567858621747705E-034
 -1.930000000000000E-002    1.493580935678977E-034
 -1.920000000000000E-002    1.126825830850406E-034
 -1.910000000000000E-002    4.154264791850474E-035
 -1.900000000000000E-002   -6.463976507201272E-035
 -1.890000000000000E-002   -1.997174930764489E-034
 -1.880000000000000E-002   -3.492915878618308E-034
 -1.870000000000000E-002   -4.903390062927306E-034
 -1.860000000000000E-002   -5.925918100334992E-034
 -1.850000000000000E-002   -6.221295247674218E-034
 -1.840000000000000E-002   -5.473390723199531E-034
 -1.830000000000000E-002   -3.469129793056915E-034
 -1.820000000000000E-002   -1.893115704454319E-035
 -1.810000000000000E-002    4.106152153095234E-034
 -1.800000000000000E-002    8.821056024124169E-034
 -1.790000000000000E-002    1.301981132623930E-033
 -1.780000000000000E-002    1.550340382648725E-033
 -1.770000000000000E-002    1.498197037285703E-033
 -1.760000000000000E-002    1.034664510394348E-033
 -1.750000000000000E-002    1.021111649576920E-034
 -1.740000000000000E-002   -1.265432957805197E-033
 -1.730000000000000E-002   -2.908217517561533E-033
 -1.720000000000000E-002   -4.521053630212454E-033
 -1.710000000000000E-002   -5.659048729159803E-033
 -1.700000000000000E-002   -5.778926398391070E-033
 -1.690000000000000E-002   -4.322315764144280E-033
 -1.680000000000000E-002   -8.405329706032038E-034
 -1.670000000000000E-002    4.849370683894685E-033
 -1.660000000000000E-002    1.249910909981844E-032
 -1.650000000000000E-002    2.128762788598100E-032
 -1.640000000000000E-002    2.974589107897274E-032
 -1.630000000000000E-002    3.579346824886230E-032
 -1.620000000000000E-002    3.692657246811365E-032
 -1.610000000000000E-002    3.058003786572502E-032
 -1.600000000000000E-002    1.465640601093667E-032
 -1.590000000000000E-002   -1.182453301880303E-032
 -1.580000000000000E-002   -4.804804070543409E-032
 -1.570000000000000E-002   -9.083448997420787E-032
 -1.560000000000000E-002   -1.343440862516526E-031
 -1.550000000000000E-002   -1.702295842684646E-031
 -1.540000000000000E-002   -1.883810119002076E-031
 -1.530000000000000E-002   -1.783338787014254E-031
 -1.520000000000000E-002   -1.312957328135530E-031
 -1.510000000000000E-002   -4.259378977489880E-032
 -1.500000000000000E-002    8.582078729261683E-032
 -1.490000000000000E-002    2.433281894316888E-031
 -1.480000000000000E-002    4.096672592564403E-031
 -1.470000000000000E-002    5.556460412240718E-031
 -1.460000000000000E-002    6.460110165289815E-031
 -1.450000000000000E-002    6.446594115636718E-031
 -1.440000000000000E-002    5.219384038872564E-031
 -1.430000000000000E-002    2.632250871325814E-031
 -1.420000000000000E-002   -1.225979877046032E-031
 -1.410000000000000E-002   -5.966479669423862E-031
 -1.400000000000000E-002   -1.087669232546757E-030
 -1.390000000000000E-002   -1.495821162834687E-030
 -1.380000000000000E-002   -1.704078061871203E-030
 -1.370000000000000E-002   -1.597575715771721E-030
 -1.360000000000000E-002   -1.089642043735331E-030
 -1.350000000000000E-002   -1.513356088210734E-031
 -1.340000000000000E-002    1.160604227489976E-030
 -1.330000000000000E-002    2.684016897198188E-030
 -1.320000000000000E-002    4.147066030615596E-030
 -1.310000000000000E-002    5.186079649413040E-030
 -1.300000000000000E-002    5.389781983763767E-030
 -1.290000000000000E-002    4.370165807771500E-030
 -1.280000000000000E-002    1.854706871931502E-030
 -1.270000000000000E-002   -2.211751640631492E-030
 -1.260000000000000E-002   -7.573287831712676E-030
 -1.250000000000000E-002   -1.359979235491761E-029
 -1.240000000000000E-002   -1.927840703248736E-029
 -1.230000000000000E-002   -2.328051002881774E-029
 -1.220000000000000E-002   -2.411699434372424E-029
 -1.210000000000000E-002   -2.038088592502174E-029
 -1.200000000000000E-002   -1.105829430648138E-029
 -1.190000000000000E-002    4.131539236619840E-030
 -1.180000000000000E-002    2.442525374081297E-029
 -1.170000000000000E-002    4.780491222335240E-029
 -1.160000000000000E-002    7.096282954077196E-029
 -1.150000000000000E-002    8.950577094405912E-029
 -1.140000000000000E-002    9.843563134018619E-029
 -1.130000000000000E-002    9.290102021120601E-029
 -1.120000000000000E-002    6.915913515907778E-029
 -1.110000000000000E-002    2.562734010605856E-029
 -1.100000000000000E-002   -3.615060613609806E-029
 -1.090000000000000E-002   -1.108352477597270E-028
 -1.080000000000000E-002   -1.891365344630974E-028
 -1.070000000000000E-002   -2.583557828699958E-028
 -1.060000000000000E-002   -3.037260017235796E-028
 -1.050000000000000E-002   -3.105279137166385E-028
 -1.040000000000000E-002   -2.668031288048504E-028
 -1.030000000000000E-002   -1.663204751172660E-028
 -1.020000000000000E-002   -1.130662574546461E-029
 -1.010000000000000E-002    1.856399899926495E-028
 -1.000000000000000E-002    4.010361509501071E-028
 -9.899999999999999E-003    6.018789786856727E-028
 -9.800000000000000E-003    7.491374123213260E-028
 -9.699999999999999E-003    8.032796434047643E-028
 -9.599999999999999E-003    7.313363266941985E-028
 -9.500000000000000E-003    5.145763830611856E-028
 -9.399999999999999E-003    1.555185433636957E-028
 -9.299999999999999E-003   -3.171984992989687E-028
 -9.200000000000000E-003   -8.475314198302087E-028
 -9.099999999999999E-003   -1.355457212427442E-027
 -8.999999999999999E-003   -1.745617482302939E-027
 -8.900000000000000E-003   -1.920827014325830E-027
 -8.799999999999999E-003   -1.799085483376444E-027
 -8.699999999999999E-003   -1.331743615453385E-027
 -8.600000000000000E-003   -5.197106993468468E-028
 -8.499999999999999E-003    5.757572303360257E-028
 -8.399999999999999E-003    1.830897834348555E-027
 -8.300000000000000E-003    3.068191737834267E-027
 -8.199999999999999E-003    4.076709965680056E-027
 -8.100000000000000E-003    4.642659709675398E-027
 -8.000000000000000E-003    4.586450528015977E-027
 -7.899999999999999E-003    3.800544905235326E-027
 -7.800000000000000E-003    2.280990702452184E-027
 -7.699999999999999E-003    1.452990441705766E-028
 -7.599999999999999E-003   -2.369454417333558E-027
 -7.499999999999999E-003   -4.931686254803599E-027
 -7.399999999999999E-003   -7.162835335973256E-027
 -7.299999999999999E-003   -8.701840636642528E-027
 -7.199999999999999E-003   -9.276260109523176E-027
 -7.100000000000000E-003   -8.766043449590148E-027
 -6.999999999999999E-003   -7.244451880412560E-027
 -6.899999999999999E-003   -4.982138932788853E-027
 -6.800000000000000E-003   -2.405393657680778E-027
 -6.699999999999999E-003   -7.838051782565808E-030
 -6.599999999999999E-003    1.774508409137716E-027
 -6.499999999999999E-003    2.703644367690831E-027
 -6.399999999999999E-003    2.864751030690269E-027
 -6.299999999999999E-003    2.740096656246958E-027
 -6.199999999999999E-003    3.196974195280951E-027
 -6.100000000000000E-003    5.364565239719932E-027
 -5.999999999999999E-003    1.039268884058885E-026
 -5.899999999999999E-003    1.911059096945742E-026
 -5.800000000000000E-003    3.163279210904942E-026
 -5.699999999999999E-003    4.698647469293223E-026
 -5.599999999999999E-003    6.285476347082830E-026
 -5.499999999999999E-003    7.553588401882706E-026
 -5.399999999999999E-003    8.020442938741561E-026
 -5.299999999999999E-003    7.152478909151726E-026
 -5.199999999999999E-003    4.460895859937557E-026
 -5.099999999999999E-003   -3.762724997656103E-027
 -4.999999999999999E-003   -7.381937487763672E-026
 -4.899999999999999E-003   -1.616086054863854E-025
 -4.799999999999999E-003   -2.582165535798517E-025
 -4.699999999999999E-003   -3.496842859242969E-025
 -4.599999999999999E-003   -4.178585802716373E-025
 -4.499999999999999E-003   -4.423081331832395E-025
 -4.399999999999999E-003   -4.032744844864661E-025
 -4.299999999999999E-003   -2.854258359762349E-025
 -4.199999999999999E-003   -8.196817335619544E-026
 -4.099999999999999E-003    2.015215767257086E-025
 -3.999999999999999E-003    5.443002892710148E-025
 -3.899999999999999E-003    9.094821548320014E-025
 -3.799999999999999E-003    1.245547892344065E-024
 -3.699999999999999E-003    1.490746604522072E-024
 -3.599999999999999E-003    1.580400485892928E-024
 -3.499999999999999E-003    1.456627274846074E-024
 -3.399999999999999E-003    1.079465328044735E-024
 -3.299999999999999E-003    4.379038501099511E-025
 -3.199999999999999E-003   -4.410134736256714E-025
 -3.099999999999999E-003   -1.486951175634712E-024
 -2.999999999999999E-003   -2.586647668853568E-024
 -2.899999999999999E-003   -3.591091710278137E-024
 -2.799999999999999E-003   -4.329873734211234E-024
 -2.699999999999999E-003   -4.631998078170555E-024
 -2.599999999999999E-003   -4.351262352750144E-024
 -2.499999999999999E-003   -3.393212640166736E-024
 -2.399999999999999E-003   -1.739851203262935E-024
 -2.299999999999999E-003    5.320918928927610E-025
 -2.199999999999999E-003    3.243275256583775E-024
 -2.099999999999999E-003    6.117298201936128E-024
 -1.999999999999999E-003    8.801190692359470E-024
 -1.899999999999999E-003    1.090032084051695E-023
 -1.799999999999999E-003    1.202493212135664E-023
 -1.699999999999999E-003    1.184336293237185E-023
 -1.599999999999999E-003    1.013530444394192E-023
 -1.499999999999999E-003    6.837563435330273E-024
 -1.399999999999999E-003    2.074966805282690E-024
 -1.299999999999999E-003   -3.829615454427072E-024
 -1.199999999999999E-003   -1.036972274559042E-023
 -1.099999999999999E-003   -1.689458339710388E-023
 -9.999999999999989E-004   -2.266997814063523E-023
 -8.999999999999990E-004   -2.695406004480235E-023
 -7.999999999999990E-004   -2.907892517080152E-023
 -6.999999999999989E-004   -2.852751614346972E-023
 -5.999999999999990E-004   -2.499587834466745E-023
 -4.999999999999989E-004   -1.843295549413474E-023
 -3.999999999999989E-004   -9.053779114550426E-024
 -2.999999999999989E-004    2.673619459288001E-024
 -1.999999999999989E-004    1.606269889676251E-023
 -9.999999999999892E-005    3.025585389225024E-023
  1.084202172485504E-018    4.427462851430673E-023
  1.000000000000011E-004    5.706325669363775E-023
  2.000000000000011E-004    6.751951177853960E-023
  3.000000000000011E-004    7.451257402285837E-023
  4.000000000000011E-004    7.689463279610218E-023
  5.000000000000011E-004    7.351978476662837E-023
  6.000000000000011E-004    6.328860995185137E-023
  7.000000000000011E-004    4.523773882705166E-023
  8.000000000000011E-004    1.868945776269510E-023
  9.000000000000012E-004   -1.653380189376230E-023
  1.000000000000001E-003   -5.984083317317018E-023
  1.100000000000001E-003   -1.095789203740744E-022
  1.200000000000001E-003   -1.627669038716736E-022
  1.300000000000001E-003   -2.149205410773643E-022
  1.400000000000001E-003   -2.600452857253022E-022
  1.500000000000001E-003   -2.908687154816693E-022
  1.600000000000001E-003   -2.993665935958313E-022
  1.700000000000001E-003   -2.776030921497018E-022
  1.800000000000001E-003   -2.188576508068875E-022
  1.900000000000001E-003   -1.189537293977188E-022
  2.000000000000001E-003    2.235461967821500E-023
  2.100000000000001E-003    2.001343286411774E-022
  2.200000000000001E-003    4.033925862319601E-022
  2.300000000000001E-003    6.147990666008571E-022
  2.400000000000001E-003    8.112160520799207E-022
  2.500000000000001E-003    9.651729400368843E-022
  2.600000000000001E-003    1.047314954885309E-021
  2.700000000000001E-003    1.029721756126542E-021
  2.800000000000001E-003    8.898427813912773E-022
  2.900000000000001E-003    6.146528973288679E-022
  3.000000000000001E-003    2.045163985326831E-022
  3.100000000000001E-003   -3.238193136983529E-022
  3.200000000000001E-003   -9.356753728415284E-022
  3.300000000000001E-003   -1.578832847470721E-021
  3.400000000000001E-003   -2.186192347410230E-021
  3.500000000000001E-003   -2.680793320051421E-021
  3.600000000000001E-003   -2.982998094436615E-021
  3.700000000000001E-003   -3.019334181879700E-021
  3.800000000000001E-003   -2.732200723978065E-021
  3.900000000000001E-003   -2.089413812948180E-021
  4.000000000000001E-003   -1.092431374668240E-021
  4.100000000000001E-003    2.179086130127759E-022
  4.200000000000001E-003    1.759167396186298E-021
  4.300000000000001E-003    3.409361363931502E-021
  4.400000000000001E-003    5.013657139870324E-021
  4.500000000000001E-003    6.395594967654696E-021
  4.600000000000002E-003    7.372214030976200E-021
  4.700000000000001E-003    7.771976051961285E-021
  4.800000000000001E-003    7.453975344219131E-021
  4.900000000000002E-003    6.326648446068849E-021
  5.000000000000001E-003    4.364092696079710E-021
  5.100000000000001E-003    1.618173427232792E-021
  5.200000000000001E-003   -1.775153776997477E-021
  5.300000000000002E-003   -5.596476429996802E-021
  5.400000000000001E-003   -9.551175748999837E-021
  5.500000000000001E-003   -1.328538579380142E-020
  5.600000000000002E-003   -1.640914986373221E-020
  5.700000000000001E-003   -1.852571055199661E-020
  5.800000000000001E-003   -1.926535690995236E-020
  5.900000000000002E-003   -1.832181350737559E-020
  6.000000000000001E-003   -1.548879573458637E-020
  6.100000000000001E-003   -1.069407556309871E-020
  6.200000000000002E-003   -4.028182374530017E-021
  6.300000000000002E-003    4.235261044485821E-021
  6.400000000000001E-003    1.363058411311852E-020
  6.500000000000001E-003    2.350536419320998E-020
  6.600000000000002E-003    3.304245816247459E-020
  6.700000000000001E-003    4.130056149951346E-020
  6.800000000000001E-003    4.727399883137327E-020
  6.900000000000002E-003    4.997092274579032E-020
  7.000000000000001E-003    4.850716873822132E-020
  7.100000000000001E-003    4.221068812198737E-020
  7.200000000000002E-003    3.072904338932541E-020
  7.300000000000002E-003    1.413005542991604E-020
  7.400000000000001E-003   -7.016214028897491E-021
  7.500000000000001E-003   -3.158709198855031E-020
  7.600000000000002E-003   -5.790130003579452E-020
  7.700000000000001E-003   -8.376842525134328E-020
  7.800000000000001E-003   -1.066013889832610E-019
  7.900000000000001E-003   -1.235942247700715E-019
  8.000000000000002E-003   -1.319605510578885E-019
  8.100000000000001E-003   -1.292201751002332E-019
  8.200000000000001E-003   -1.135130708338592E-019
  8.300000000000002E-003   -8.391226811562665E-020
  8.400000000000001E-003   -4.070139635930423E-020
  8.500000000000002E-003    1.442047967746508E-020
  8.600000000000002E-003    7.824329739026652E-020
  8.700000000000001E-003    1.460912215030836E-019
  8.800000000000002E-003    2.120302190253287E-019
  8.900000000000002E-003    2.692456577316617E-019
  9.000000000000001E-003    3.105799445581644E-019
  9.100000000000002E-003    3.292009244290196E-019
  9.200000000000002E-003    3.193523773820205E-019
  9.300000000000001E-003    2.771208898851233E-019
  9.400000000000002E-003    2.011408992180237E-019
  9.500000000000001E-003    9.315397579602000E-020
  9.600000000000001E-003   -4.165906149541127E-020
  9.700000000000002E-003   -1.946429397113343E-019
  9.800000000000001E-003   -3.539782336939462E-019
  9.900000000000001E-003   -5.053570749387820E-019
  1.000000000000000E-002   -6.330089345647508E-019
  1.010000000000000E-002   -7.210234334612061E-019
  1.020000000000000E-002   -7.548796628932001E-019
  1.030000000000000E-002   -7.230589042225554E-019
  1.040000000000000E-002   -6.185933763072409E-019
  1.050000000000000E-002   -4.403912891659122E-019
  1.060000000000000E-002   -1.941805041096894E-019
  1.070000000000000E-002    1.070697383754382E-019
  1.080000000000000E-002    4.433560852318400E-019
  1.090000000000000E-002    7.885384442297746E-019
  1.100000000000000E-002    1.111930634930023E-018
  1.110000000000000E-002    1.380524031970190E-018
  1.120000000000000E-002    1.561718970475092E-018
  1.130000000000000E-002    1.626377746080471E-018
  1.140000000000000E-002    1.551963176383241E-018
  1.150000000000000E-002    1.325490624195419E-018
  1.160000000000000E-002    9.460061698031056E-019
  1.170000000000000E-002    4.263108359687520E-019
  1.180000000000000E-002   -2.063179624616759E-019
  1.190000000000000E-002   -9.106001490888790E-019
  1.200000000000000E-002   -1.633036478650923E-018
  1.210000000000000E-002   -2.311018100406501E-018
  1.220000000000000E-002   -2.877167804088130E-018
  1.230000000000000E-002   -3.264701302297946E-018
  1.240000000000000E-002   -3.413479247823748E-018
  1.250000000000000E-002   -3.276318183869493E-018
  1.260000000000000E-002   -2.825042659001420E-018
  1.270000000000000E-002   -2.055708793666656E-018
  1.280000000000000E-002   -9.924187055764755E-019
  1.290000000000000E-002    3.108204803913085E-019
  1.300000000000000E-002    1.770649872939864E-018
  1.310000000000000E-002    3.277635115835461E-018
  1.320000000000000E-002    4.702382349939418E-018
  1.330000000000000E-002    5.904372622293084E-018
  1.340000000000000E-002    6.743121551966681E-018
  1.350000000000000E-002    7.091000485075880E-018
  1.360000000000000E-002    6.846790213224191E-018
  1.370000000000000E-002    5.948822014688764E-018
  1.380000000000000E-002    4.386419611181343E-018
  1.390000000000000E-002    2.208306764053507E-018
  1.400000000000000E-002   -4.732724505848167E-019
  1.410000000000000E-002   -3.483763639830668E-018
  1.420000000000000E-002   -6.593535274611265E-018
  1.430000000000000E-002   -9.531351235462145E-018
  1.440000000000000E-002   -1.200373058441657E-017
  1.450000000000000E-002   -1.371921132730316E-017
  1.460000000000000E-002   -1.441592022566786E-017
  1.470000000000000E-002   -1.389027129756460E-017
  1.480000000000000E-002   -1.202420781268460E-017
  1.490000000000000E-002   -8.808149623239220E-018
  1.500000000000000E-002   -4.356837933067807E-018
  1.510000000000000E-002    1.084444919681764E-018
  1.520000000000000E-002    7.145205364721436E-018
  1.530000000000000E-002    1.334768464408703E-017
  1.540000000000000E-002    1.913740209289535E-017
  1.550000000000000E-002    2.392504282810213E-017
  1.560000000000000E-002    2.713718378584958E-017
  1.570000000000000E-002    2.827215684347648E-017
  1.580000000000000E-002    2.695638267036659E-017
  1.590000000000000E-002    2.299588287405405E-017
  1.600000000000000E-002    1.641745846303850E-017
  1.610000000000000E-002    7.494353765681545E-018
  1.620000000000000E-002   -3.247953536078653E-018
  1.630000000000000E-002   -1.504882190732505E-017
  1.640000000000000E-002   -2.695356970809737E-017
  1.650000000000000E-002   -3.787773677858751E-017
  1.660000000000000E-002   -4.669128003729799E-017
  1.670000000000000E-002   -5.231730250726344E-017
  1.680000000000000E-002   -5.383792209466706E-017
  1.690000000000000E-002   -5.059837275314863E-017
  1.700000000000000E-002   -4.229961194853499E-017
  1.710000000000000E-002   -2.906958573776296E-017
  1.720000000000000E-002   -1.150416014434672E-017
  1.730000000000000E-002    9.329594778306800E-018
  1.740000000000000E-002    3.193250140812810E-017
  1.750000000000000E-002    5.445629463754289E-017
  1.760000000000000E-002    7.482829963415927E-017
  1.770000000000000E-002    9.091158328054291E-017
  1.780000000000000E-002    1.006905173497397E-016
  1.790000000000000E-002    1.024682681317602E-016
  1.800000000000000E-002    9.506008417604418E-017
  1.810000000000000E-002    7.796465011394158E-017
  1.820000000000000E-002    5.149562594516460E-017
  1.830000000000000E-002    1.685675068539542E-017
  1.840000000000000E-002   -2.385319496368894E-017
  1.850000000000000E-002   -6.771480252085691E-017
  1.860000000000000E-002   -1.111452571483090E-016
  1.870000000000000E-002   -1.501349845031406E-016