 -4.000000000000000E-002    0.000000000000000E+000
 -3.990000000000000E-002    0.000000000000000E+000
 -3.980000000000000E-002    0.000000000000000E+000
 -3.970000000000000E-002    0.000000000000000E+000
 -3.960000000000000E-002    0.000000000000000E+000
 -3.950000000000000E-002    0.000000000000000E+000
 -3.940000000000000E-002    0.000000000000000E+000
 -3.930000000000000E-002    0.000000000000000E+000
 -3.920000000000000E-002    0.000000000000000E+000
 -3.910000000000000E-002    0.000000000000000E+000
 -3.900000000000000E-002    0.000000000000000E+000
 -3.890000000000000E-002    0.000000000000000E+000
 -3.880000000000000E-002    0.000000000000000E+000
 -3.870000000000000E-002    0.000000000000000E+000
 -3.860000000000000E-002    0.000000000000000E+000
 -3.850000000000000E-002    0.000000000000000E+000
 -3.840000000000000E-002    0.000000000000000E+000
 -3.830000000000000E-002    0.000000000000000E+000
 -3.820000000000000E-002    0.000000000000000E+000
 -3.810000000000000E-002    0.000000000000000E+000
 -3.800000000000000E-002    0.000000000000000E+000
 -3.790000000000000E-002    0.000000000000000E+000
 -3.780000000000000E-002    0.000000000000000E+000
 -3.770000000000000E-002    0.000000000000000E+000
 -3.760000000000000E-002    0.000000000000000E+000
 -3.750000000000000E-002    0.000000000000000E+000
 -3.740000000000000E-002    0.000000000000000E+000
 -3.730000000000000E-002    0.000000000000000E+000
 -3.720000000000000E-002    0.000000000000000E+000
 -3.710000000000000E-002    0.000000000000000E+000
 -3.700000000000000E-002    0.000000000000000E+000
 -3.690000000000000E-002    0.000000000000000E+000
 -3.680000000000000E-002    0.000000000000000E+000
 -3.670000000000000E-002    0.000000000000000E+000
 -3.660000000000000E-002    0.000000000000000E+000
 -3.650000000000000E-002    0.000000000000000E+000
 -3.640000000000000E-002    0.000000000000000E+000
 -3.630000000000000E-002    0.000000000000000E+000
 -3.620000000000000E-002    0.000000000000000E+000
 -3.610000000000000E-002    0.000000000000000E+000
 -3.600000000000000E-002    0.000000000000000E+000
 -3.590000000000000E-002    0.000000000000000E+000
 -3.580000000000000E-002    0.000000000000000E+000
 -3.570000000000000E-002    0.000000000000000E+000
 -3.560000000000000E-002    0.000000000000000E+000
 -3.550000000000000E-002    0.000000000000000E+000
 -3.540000000000000E-002    0.000000000000000E+000
 -3.530000000000000E-002    0.000000000000000E+000
 -3.520000000000000E-002    0.000000000000000E+000
 -3.510000000000000E-002    0.000000000000000E+000
 -3.500000000000000E-002    0.000000000000000E+000
 -3.490000000000000E-002    0.000000000000000E+000
 -3.480000000000000E-002    0.000000000000000E+000
 -3.470000000000000E-002    0.000000000000000E+000
 -3.460000000000000E-002    0.000000000000000E+000
 -3.450000000000000E-002    0.000000000000000E+000
 -3.440000000000000E-002   -2.728390692641647E-047
 -3.430000000000000E-002   -6.386914560548889E-047
 -3.420000000000000E-002   -1.097557160372173E-046
 -3.410000000000000E-002   -2.204698269812513E-046
 -3.400000000000000E-002   -5.482239519032125E-046
 -3.390000000000000E-002   -9.904682358387928E-046
 -3.380000000000000E-002   -1.821006075245788E-045
 -3.370000000000000E-002   -2.953070096306179E-045
 -3.360000000000000E-002   -4.176291900214500E-045
 -3.350000000000000E-002   -5.975838677829334E-045
 -3.340000000000000E-002   -7.534367158190617E-045
 -3.330000000000000E-002   -8.108320976695676E-045
 -3.320000000000000E-002   -7.024864751804321E-045
 -3.310000000000000E-002   -2.844898777504459E-045
 -3.300000000000000E-002    6.515337227712965E-045
 -3.290000000000000E-002    2.373257822294004E-044
 -3.280000000000000E-002    5.247544802019899E-044
 -3.270000000000000E-002    9.637669301562654E-044
 -3.260000000000000E-002    1.557579458313569E-043
 -3.250000000000000E-002    2.281526882370880E-043
 -3.240000000000000E-002    3.041953176231717E-043
 -3.230000000000000E-002    3.640477240972799E-043
 -3.220000000000000E-002    3.795897946657544E-043
 -3.210000000000000E-002    3.142386041574129E-043
 -3.200000000000000E-002    1.367386728157926E-043
 -3.190000000000000E-002   -1.612542303809448E-043
 -3.180000000000000E-002   -5.222873934889899E-043
 -3.170000000000000E-002   -7.605513293457883E-043
 -3.160000000000000E-002   -4.783476677760980E-043
 -3.150000000000000E-002    1.038914179348977E-042
 -3.140000000000000E-002    4.929087353794990E-042
 -3.130000000000000E-002    1.281957158481383E-041
 -3.120000000000000E-002    2.678984791315541E-041
 -3.110000000000000E-002    4.911162785013488E-041
 -3.100000000000000E-002    8.161782975579135E-041
 -3.090000000000000E-002    1.244668546910100E-040
 -3.080000000000000E-002    1.740237899185657E-040
 -3.070000000000000E-002    2.195590084335235E-040
 -3.060000000000000E-002    2.384514099807608E-040
 -3.050000000000000E-002    1.897378688034992E-040
 -3.040000000000000E-002    6.150285844846431E-042
 -3.030000000000000E-002   -4.145923905780699E-040
 -3.020000000000000E-002   -1.217393384147036E-039
 -3.010000000000000E-002   -2.592720007156239E-039
 -3.000000000000000E-002   -4.768779291278593E-039
 -2.990000000000000E-002   -7.983394090082126E-039
 -2.980000000000000E-002   -1.242179717773294E-038
 -2.970000000000000E-002   -1.810201942041885E-038
 -2.960000000000000E-002   -2.468587228792970E-038
 -2.950000000000000E-002   -3.119285110947350E-038
 -2.940000000000000E-002   -3.560017505576666E-038
 -2.930000000000000E-002   -3.432950326102491E-038
 -2.920000000000000E-002   -2.165610699249115E-038
 -2.910000000000000E-002    1.086252376363772E-038
 -2.900000000000000E-002    7.474959815150648E-038
 -2.890000000000000E-002    1.844463640909394E-037
 -2.880000000000000E-002    3.561480168819041E-037
 -2.870000000000000E-002    6.049929268756969E-037
 -2.860000000000000E-002    9.398140869920068E-037
 -2.850000000000000E-002    1.354612521264666E-036
 -2.840000000000000E-002    1.816052692447454E-036
 -2.830000000000000E-002    2.246743430059091E-036
 -2.820000000000000E-002    2.505009176542571E-036
 -2.810000000000000E-002    2.363424541679391E-036
 -2.800000000000000E-002    1.490680976881021E-036
 -2.790000000000000E-002   -5.556028204012431E-037
 -2.780000000000000E-002   -4.313978633116757E-036
 -2.770000000000000E-002   -1.036745100395583E-035
 -2.760000000000000E-002   -1.923750596939085E-035
 -2.750000000000000E-002   -3.120605517203335E-035
 -2.740000000000000E-002   -4.605101410246541E-035
 -2.730000000000000E-002   -6.269123970101681E-035
 -2.720000000000000E-002   -7.875484821089518E-035
 -2.710000000000000E-002   -9.011363661294056E-035
 -2.700000000000000E-002   -9.046591155663354E-035
 -2.690000000000000E-002   -7.109880082662993E-035
 -2.680000000000000E-002   -2.101448925181874E-035
 -2.670000000000000E-002    7.234628636356478E-035
 -2.660000000000000E-002    2.215207593291654E-034
 -2.650000000000000E-002    4.363244120612506E-034
 -2.640000000000000E-002    7.198489941724047E-034
 -2.630000000000000E-002    1.063124583861128E-033
 -2.620000000000000E-002    1.438672331524728E-033
 -2.610000000000000E-002    1.793551575510008E-033
 -2.600000000000000E-002    2.042992734525433E-033
 -2.590000000000000E-002    2.066272591275538E-033
 -2.580000000000000E-002    1.707057873985545E-033
 -2.570000000000000E-002    7.809149790315934E-034
 -2.560000000000000E-002   -9.071103163376726E-034
 -2.550000000000000E-002   -3.532172382815995E-033
 -2.540000000000000E-002   -7.204764459551141E-033
 -2.530000000000000E-002   -1.191126254323089E-032
 -2.520000000000000E-002   -1.744246507360409E-032
 -2.510000000000000E-002   -2.331640185414516E-032
 -2.500000000000000E-002   -2.870614640563745E-032
 -2.490000000000000E-002   -3.238823965636391E-032
 -2.480000000000000E-002   -3.273194147009511E-032
 -2.470000000000000E-002   -2.775296379476438E-032
 -2.460000000000000E-002   -1.525629838871684E-032
 -2.450000000000000E-002    6.909964752979867E-033
 -2.440000000000000E-002    4.047579740911163E-032
 -2.430000000000000E-002    8.624524090161597E-032
 -2.420000000000000E-002    1.434876755063165E-031
 -2.410000000000000E-002    2.092715629521491E-031
 -2.400000000000000E-002    2.778192177682558E-031
 -2.390000000000000E-002    3.399941625111715E-031
 -2.380000000000000E-002    3.830626142092261E-031
 -2.370000000000000E-002    3.908919873507968E-031
 -2.360000000000000E-002    3.447546059600994E-031
 -2.350000000000000E-002    2.248864348400157E-031
 -2.340000000000000E-002    1.290437257337770E-032
 -2.330000000000000E-002   -3.048994652857269E-031
 -2.320000000000000E-002   -7.334838876878330E-031
 -2.310000000000000E-002   -1.264456845717165E-030
 -2.300000000000000E-002   -1.871374315950421E-030
 -2.290000000000000E-002   -2.505550721818735E-030
 -2.280000000000000E-002   -3.093169380266738E-030
 -2.270000000000000E-002   -3.534606422052505E-030
 -2.260000000000000E-002   -3.706940520180558E-030
 -2.250000000000000E-002   -3.470567261701164E-030
 -2.240000000000000E-002   -2.680641921797482E-030
 -2.230000000000000E-002   -1.203717223873791E-030
 -2.220000000000000E-002    1.060596001316190E-030
 -2.210000000000000E-002    4.153823952379191E-030
 -2.200000000000000E-002    8.030410116425160E-030
 -2.190000000000000E-002    1.252973824940349E-029
 -2.180000000000000E-002    1.735199012113384E-029
 -2.170000000000000E-002    2.204221857451497E-029
 -2.160000000000000E-002    2.598755584394275E-029
 -2.150000000000000E-002    2.843258022352780E-029
 -2.140000000000000E-002    2.851735886611461E-029
 -2.130000000000000E-002    2.534145065196327E-029
 -2.120000000000000E-002    1.805509640803780E-029
 -2.110000000000000E-002    5.975868858786134E-030
 -2.100000000000000E-002   -1.127469014131505E-029
 -2.090000000000000E-002   -3.362409294641397E-029
 -2.080000000000000E-002   -6.040582320118161E-029
 -2.070000000000000E-002   -9.023838079788765E-029
 -2.060000000000000E-002   -1.209477291608550E-028
 -2.050000000000000E-002   -1.495557268301645E-028
 -2.040000000000000E-002   -1.723556734191912E-028
 -2.030000000000000E-002   -1.850917579779973E-028
 -2.020000000000000E-002   -1.832507719748687E-028
 -2.010000000000000E-002   -1.624630940791825E-028
 -2.000000000000000E-002   -1.189952055156477E-028
 -1.990000000000000E-002   -5.030043595850324E-029
 -1.980000000000000E-002    4.442154464365315E-029
 -1.970000000000000E-002    1.637177801483532E-028
 -1.960000000000000E-002    3.034957667561973E-028
 -1.950000000000000E-002    4.568239989122918E-028
 -1.940000000000000E-002    6.139727553286513E-028
 -1.930000000000000E-002    7.627254204459909E-028
 -1.920000000000000E-002    8.889558130607316E-028
 -1.910000000000000E-002    9.774296965197926E-028
 -1.900000000000000E-002    1.012747371632168E-027
 -1.890000000000000E-002    9.803148371248846E-028
 -1.880000000000000E-002    8.672177028993208E-028
 -1.870000000000000E-002    6.628845488215956E-028
 -1.860000000000000E-002    3.594739767394555E-028
 -1.850000000000000E-002   -4.800296500554579E-029
 -1.840000000000000E-002   -5.617056590926267E-028
 -1.830000000000000E-002   -1.180897838164111E-027
 -1.820000000000000E-002   -1.901448463116463E-027
 -1.810000000000000E-002   -2.714501432599165E-027
 -1.800000000000000E-002   -3.603927641826725E-027
 -1.790000000000000E-002   -4.542307842299995E-027
 -1.780000000000000E-002   -5.485455407833017E-027
 -1.770000000000000E-002   -6.365890239282048E-027
 -1.760000000000000E-002   -7.086167990130994E-027
 -1.750000000000000E-002   -7.513542782288161E-027
 -1.740000000000000E-002   -7.477925096283805E-027
 -1.730000000000000E-002   -6.775442983618296E-027
 -1.720000000000000E-002   -5.179930941418116E-027
 -1.710000000000000E-002   -2.464262468260204E-027
 -1.700000000000000E-002    1.567528674937965E-027
 -1.690000000000000E-002    7.037924766224158E-027
 -1.680000000000000E-002    1.394596275311744E-026
 -1.670000000000000E-002    2.211459890295993E-026
 -1.660000000000000E-002    3.114262642545221E-026
 -1.650000000000000E-002    4.037033579064959E-026
 -1.640000000000000E-002    4.886907124892614E-026
 -1.630000000000000E-002    5.546451551671300E-026
 -1.620000000000000E-002    5.880135401436358E-026
 -1.610000000000000E-002    5.745299975260165E-026
 -1.600000000000000E-002    5.007412694152416E-026
 -1.590000000000000E-002    3.558653062036246E-026
 -1.580000000000000E-002    1.338125742288535E-026
 -1.570000000000000E-002   -1.648713762073889E-026
 -1.560000000000000E-002   -5.314317975890377E-026
 -1.550000000000000E-002   -9.480021510665499E-026
 -1.540000000000000E-002   -1.387643024885975E-025
 -1.530000000000000E-002   -1.815506849276306E-025
 -1.520000000000000E-002   -2.191173941231836E-025
 -1.510000000000000E-002   -2.472034187885450E-025
 -1.500000000000000E-002   -2.617392171872699E-025
 -1.490000000000000E-002   -2.592801211515805E-025
 -1.480000000000000E-002   -2.374004048376778E-025
 -1.470000000000000E-002   -1.949822182699271E-025
 -1.460000000000000E-002   -1.323420539474020E-025
 -1.450000000000000E-002   -5.115719240762851E-026
 -1.440000000000000E-002    4.581089376545682E-026
 -1.430000000000000E-002    1.551583273520682E-025
 -1.420000000000000E-002    2.733641794885806E-025
 -1.410000000000000E-002    3.972789702238046E-025
 -1.400000000000000E-002    5.244347288178593E-025
 -1.390000000000000E-002    6.530360156755339E-025
 -1.380000000000000E-002    7.815255241437292E-025
 -1.370000000000000E-002    9.076843860141491E-025
 -1.360000000000000E-002    1.027323008279666E-024
 -1.350000000000000E-002    1.132733375057125E-024
 -1.340000000000000E-002    1.211189092914656E-024
 -1.330000000000000E-002    1.243871713529216E-024
 -1.320000000000000E-002    1.205649413429015E-024
 -1.310000000000000E-002    1.066109029070099E-024
 -1.300000000000000E-002    7.921345220048794E-025
 -1.290000000000000E-002    3.521265017473245E-025
 -1.280000000000000E-002   -2.783134595683524E-025
 -1.270000000000000E-002   -1.109729198220785E-024
 -1.260000000000000E-002   -2.131998976970690E-024
 -1.250000000000000E-002   -3.308428721717029E-024
 -1.240000000000000E-002   -4.571945185455403E-024
 -1.230000000000000E-002   -5.824537489208291E-024
 -1.220000000000000E-002   -6.940832085828814E-024
 -1.210000000000000E-002   -7.776222678994804E-024
 -1.200000000000000E-002   -8.179315646885145E-024
 -1.190000000000000E-002   -8.007723516772970E-024
 -1.180000000000000E-002   -7.145493028074896E-024
 -1.170000000000000E-002   -5.519924554097933E-024
 -1.160000000000000E-002   -3.115225309687092E-024
 -1.150000000000000E-002    1.935723900633725E-026
 -1.140000000000000E-002    3.768700185762063E-024
 -1.130000000000000E-002    7.958971477579570E-024
 -1.120000000000000E-002    1.237210797978709E-023
 -1.110000000000000E-002    1.676540087577900E-023
 -1.100000000000000E-002    2.089268759538946E-023
 -1.090000000000000E-002    2.452274818316878E-023
 -1.080000000000000E-002    2.745052610071375E-023
 -1.070000000000000E-002    2.949762580792938E-023
 -1.060000000000000E-002    3.050063797798856E-023
 -1.050000000000000E-002    3.028857344972059E-023
 -1.040000000000000E-002    2.865412984072808E-023
 -1.030000000000000E-002    2.532676416433191E-023
 -1.020000000000000E-002    1.995785653110256E-023
 -1.010000000000000E-002    1.212924167138823E-023
 -1.000000000000000E-002    1.394856788613950E-024
 -9.899999999999999E-003   -1.263884150537723E-023
 -9.800000000000000E-003   -3.019443631384600E-023
 -9.699999999999999E-003   -5.117662359748985E-023
 -9.599999999999999E-003   -7.501553187127223E-023
 -9.500000000000000E-003   -1.005276314352127E-022
 -9.399999999999999E-003   -1.258275161575720E-022
 -9.299999999999999E-003   -1.483250081597463E-022
 -9.200000000000000E-003   -1.648371839741892E-022
 -9.099999999999999E-003   -1.718333202265728E-022
 -8.999999999999999E-003   -1.658122282963422E-022
 -8.900000000000000E-003   -1.437887182406446E-022
 -8.799999999999999E-003   -1.038402824495843E-022
 -8.699999999999999E-003   -4.564275046987996E-023
 -8.600000000000000E-003    2.909320522320358E-023
 -8.499999999999999E-003    1.163773477560139E-022
 -8.399999999999999E-003    2.099700125241987E-022
 -8.300000000000000E-003    3.017437851950261E-022
 -8.199999999999999E-003    3.823918937646074E-022
 -8.100000000000000E-003    4.424442291837713E-022
 -8.000000000000000E-003    4.734940120645828E-022
 -7.899999999999999E-003    4.694835971063886E-022
 -7.800000000000000E-003    4.278578802491220E-022
 -7.699999999999999E-003    3.503785627239480E-022
 -7.599999999999999E-003    2.434094673756563E-022
 -7.499999999999999E-003    1.175348729957694E-022
 -7.399999999999999E-003   -1.354132284377406E-023
 -7.299999999999999E-003   -1.347567393690154E-022
 -7.199999999999999E-003   -2.319330402052823E-022
 -7.100000000000000E-003   -2.942072021859653E-022
 -6.999999999999999E-003   -3.162781966990080E-022
 -6.899999999999999E-003   -3.000616719002894E-022
 -6.800000000000000E-003   -2.553791093841647E-022
 -6.699999999999999E-003   -1.994082812400434E-022
 -6.599999999999999E-003   -1.547927637290021E-022
 -6.499999999999999E-003   -1.465165006912250E-022
 -6.399999999999999E-003   -1.978824298104013E-022
 -6.299999999999999E-003   -3.261386955217975E-022
 -6.199999999999999E-003   -5.384377795053024E-022
 -6.100000000000000E-003   -8.288537431749247E-022
 -5.999999999999999E-003   -1.177103027285284E-021
 -5.899999999999999E-003   -1.549392611952195E-021
 -5.800000000000000E-003   -1.901494797949822E-021
 -5.699999999999999E-003   -2.183750439323604E-021
 -5.599999999999999E-003   -2.347294334766645E-021
 -5.499999999999999E-003   -2.350474733375010E-021
 -5.399999999999999E-003   -2.164246395912520E-021
 -5.299999999999999E-003   -1.775369992286135E-021
 -5.199999999999999E-003   -1.186522908028485E-021
 -5.099999999999999E-003   -4.129788656656740E-022
 -4.999999999999999E-003    5.237811108099454E-022
 -4.899999999999999E-003    1.604340585011534E-021
 -4.799999999999999E-003    2.819576892977239E-021
 -4.699999999999999E-003    4.176414054708498E-021
 -4.599999999999999E-003    5.698535110348049E-021
 -4.499999999999999E-003    7.419883836315794E-021
 -4.399999999999999E-003    9.369740064672505E-021
 -4.299999999999999E-003    1.154965057817371E-020
 -4.199999999999999E-003    1.390435781316112E-020
 -4.099999999999999E-003    1.629085300362400E-020
 -3.999999999999999E-003    1.845147171515837E-020
 -3.899999999999999E-003    1.999812852386446E-020
 -3.799999999999999E-003    2.041499598243519E-020
 -3.699999999999999E-003    1.908597227821776E-020
 -3.599999999999999E-003    1.535083238050009E-020
 -3.499999999999999E-003    8.590348879633108E-021
 -3.399999999999999E-003   -1.664084324607551E-021
 -3.299999999999999E-003   -1.560588439485728E-020
 -3.199999999999999E-003   -3.302830286631681E-020
 -3.099999999999999E-003   -5.321735419369048E-020
 -2.999999999999999E-003   -7.488297165149600E-020
 -2.899999999999999E-003   -9.614806885489564E-020
 -2.799999999999999E-003   -1.146115752904358E-019
 -2.699999999999999E-003   -1.274948591516057E-019
 -2.599999999999999E-003   -1.318716744685681E-019
 -2.499999999999999E-003   -1.249706754479533E-019
 -2.399999999999999E-003   -1.045280284102715E-019
 -2.299999999999999E-003   -6.915693169758645E-020
 -2.199999999999999E-003   -1.869298992575347E-020
 -2.099999999999999E-003    4.552950298075436E-020
 -1.999999999999999E-003    1.205142214624151E-019
 -1.899999999999999E-003    2.015892157024597E-019
 -1.799999999999999E-003    2.825676931830300E-019
 -1.699999999999999E-003    3.560910367849833E-019
 -1.599999999999999E-003    4.141424044372051E-019
 -1.499999999999999E-003    4.486995344245000E-019
 -1.399999999999999E-003    4.524771116338656E-019
 -1.299999999999999E-003    4.196953998505408E-019
 -1.199999999999999E-003    3.468048500716353E-019
 -1.099999999999999E-003    2.330954462590914E-019
 -9.999999999999989E-004    8.112771029649282E-020
 -8.999999999999990E-004   -1.030636944415731E-019
 -7.999999999999990E-004   -3.100242715592194E-019
 -6.999999999999989E-004   -5.272004432760925E-019
 -5.999999999999990E-004   -7.395149974504195E-019
 -4.999999999999989E-004   -9.301670636869099E-019
 -3.999999999999989E-004   -1.081613680012835E-018
 -2.999999999999989E-004   -1.176683002951047E-018
 -1.999999999999989E-004   -1.199766927910988E-018
 -9.999999999999892E-005   -1.138043590057994E-018
  1.084202172485504E-018   -9.826826650944887E-019
  1.000000000000011E-004   -7.299882478140266E-019
  2.000000000000011E-004   -3.824310240549569E-019
  3.000000000000011E-004    5.048856015818777E-020
  4.000000000000011E-004    5.516199617592256E-019
  5.000000000000011E-004    1.095878527583848E-018
  6.000000000000011E-004    1.650412244243034E-018
  7.000000000000011E-004    2.175345338190876E-018
  8.000000000000011E-004    2.625225849342155E-018
  9.000000000000012E-004    2.951280421709126E-018
  1.000000000000001E-003    3.104531865098939E-018
  1.100000000000001E-003    3.039753730579490E-018
  1.200000000000001E-003    2.720131055420219E-018
  1.300000000000001E-003    2.122365277710708E-018
  1.400000000000001E-003    1.241827520658574E-018
  1.500000000000001E-003    9.723673999589767E-020
  1.600000000000001E-003   -1.265756983028301E-018
  1.700000000000001E-003   -2.772747009044574E-018
  1.800000000000001E-003   -4.321135874643316E-018
  1.900000000000001E-003   -5.783611519744348E-018
  2.000000000000001E-003   -7.014846738910219E-018
  2.100000000000001E-003   -7.861445046586282E-018
  2.200000000000001E-003   -8.174795850938764E-018
  2.300000000000001E-003   -7.826113009112371E-018
  2.400000000000001E-003   -6.722538159847257E-018
  2.500000000000001E-003   -4.822863155362567E-018
  2.600000000000001E-003   -2.151186247173000E-018
  2.700000000000001E-003    1.193264879240230E-018
  2.800000000000001E-003    5.031813809469074E-018
  2.900000000000001E-003    9.108906809393586E-018
  3.000000000000001E-003    1.310246777714921E-017
  3.100000000000001E-003    1.664228670588411E-017
  3.200000000000001E-003    1.933591672236174E-017
  3.300000000000001E-003    2.080074060748205E-017
  3.400000000000001E-003    2.070006900679125E-017
  3.500000000000001E-003    1.878047137162866E-017
  3.600000000000001E-003    1.490704839783447E-017
  3.700000000000001E-003    9.093152379620762E-018
  3.800000000000001E-003    1.521157762904881E-018
  3.900000000000001E-003   -7.448693734634218E-018
  4.000000000000001E-003   -1.728360669471867E-017
  4.100000000000001E-003   -2.729892912571098E-017
  4.200000000000001E-003   -3.669425388879942E-017
  4.300000000000001E-003   -4.460364193149969E-017
  4.400000000000001E-003   -5.015740400470388E-017
  4.500000000000001E-003   -5.255166005704525E-017
  4.600000000000002E-003   -5.112099887478059E-017
  4.700000000000001E-003   -4.540883873734056E-017
  4.800000000000001E-003   -3.522986101091604E-017
  4.900000000000002E-003   -2.071895153405538E-017
  5.000000000000001E-003   -2.361635267711968E-018
  5.100000000000001E-003    1.899813537723468E-017
  5.200000000000001E-003    4.217574863260506E-017
  5.300000000000002E-003    6.569064098859268E-017
  5.400000000000001E-003    8.783764937951785E-017
  5.500000000000001E-003    1.067828830773587E-016
  5.600000000000002E-003    1.206801495601881E-016
  5.700000000000001E-003    1.278022212378032E-016
  5.800000000000001E-003    1.266795952349305E-016
  5.900000000000002E-003    1.162381460579378E-016
  6.000000000000001E-003    9.592605776808907E-017
  6.100000000000001E-003    6.581998527356910E-017
  6.200000000000002E-003    2.670063247247380E-017
  6.300000000000002E-003   -1.991143859782365E-017
  6.400000000000001E-003   -7.176719003440548E-017
  6.500000000000001E-003   -1.259529640503690E-016
  6.600000000000002E-003   -1.790089516370063E-016
  6.700000000000001E-003   -2.271008967480215E-016
  6.800000000000001E-003   -2.662394994273421E-016
  6.900000000000002E-003   -2.925378824699064E-016
  7.000000000000001E-003   -3.024934432513675E-016
  7.100000000000001E-003   -2.932768265822768E-016
  7.200000000000002E-003   -2.630083535233445E-016
  7.300000000000002E-003   -2.110007442091525E-016
  7.400000000000001E-003   -1.379473139410841E-016
  7.500000000000001E-003   -4.603653893971542E-017
  7.600000000000002E-003    6.102242980109014E-017
  7.700000000000001E-003    1.780736134147218E-016
  7.800000000000001E-003    2.986917253881487E-016
  7.900000000000001E-003    4.154605049552692E-016
  8.000000000000002E-003    5.203418079328626E-016
  8.100000000000001E-003    6.051190471119786E-016
  8.200000000000001E-003    6.618924924833341E-016
  8.300000000000002E-003    6.836001347437545E-016
  8.400000000000001E-003    6.645352074482464E-016
  8.500000000000002E-003    6.008310374695772E-016
  8.600000000000002E-003    4.908849853379638E-016
  8.700000000000001E-003    3.356962802679902E-016
  8.800000000000002E-003    1.390954481769478E-016
  8.900000000000002E-003   -9.215185619276851E-017
  9.000000000000001E-003   -3.483807132210882E-016
  9.100000000000002E-003   -6.172123285239207E-016
  9.200000000000002E-003   -8.838958876491695E-016
  9.300000000000001E-003   -1.131810503657247E-015
  9.400000000000002E-003   -1.343128298139401E-015
  9.500000000000001E-003   -1.499635381812717E-015
  9.600000000000001E-003   -1.583702034379865E-015
  9.700000000000002E-003   -1.579385003389542E-015
  9.800000000000001E-003   -1.473633755091162E-015
  9.900000000000001E-003   -1.257558437864897E-015
  1.000000000000000E-002   -9.276991611063792E-016
  1.010000000000000E-002   -4.872180867086953E-016
  1.020000000000000E-002    5.308311832602911E-017
  1.030000000000000E-002    6.740342862391972E-016
  1.040000000000000E-002    1.347779226139271E-015
  1.050000000000000E-002    2.037993777451950E-015
  1.060000000000000E-002    2.700753524793532E-015
  1.070000000000000E-002    3.286137671662953E-015
  1.080000000000000E-002    3.740615865224732E-015
  1.090000000000000E-002    4.010207043653779E-015
  1.100000000000000E-002    4.044329497057987E-015
  1.110000000000000E-002    3.800182695510823E-015
  1.120000000000000E-002    3.247415276345188E-015
  1.130000000000000E-002    2.372761533632355E-015
  1.140000000000000E-002    1.184256263504689E-015
  1.150000000000000E-002   -2.854053603267213E-016
  1.160000000000000E-002   -1.976804927887786E-015
  1.170000000000000E-002   -3.803460607893894E-015
  1.180000000000000E-002   -5.653566642981516E-015
  1.190000000000000E-002   -7.394060687666471E-015
  1.200000000000000E-002   -8.877117329004632E-015
  1.210000000000000E-002   -9.948979360793847E-015
  1.220000000000000E-002   -1.046082854816198E-014
  1.230000000000000E-002   -1.028117202922700E-014
  1.240000000000000E-002   -9.309009183367924E-015
  1.250000000000000E-002   -7.486848963233953E-015
  1.260000000000000E-002   -4.812504993304205E-015
  1.270000000000000E-002   -1.348515847585382E-015
  1.280000000000000E-002    2.771964790990118E-015
  1.290000000000000E-002    7.343855236675614E-015
  1.300000000000000E-002    1.209427648716337E-014
  1.310000000000000E-002    1.669267876282569E-014
  1.320000000000000E-002    2.076713233075380E-014
  1.330000000000000E-002    2.392648332271208E-014
  1.340000000000000E-002    2.578755772040598E-014
  1.350000000000000E-002    2.600605510115856E-014
  1.360000000000000E-002    2.430929056951940E-014
  1.370000000000000E-002    2.052846878471642E-014
  1.380000000000000E-002    1.462788908838643E-014
  1.390000000000000E-002    6.728281192953027E-015
  1.400000000000000E-002   -2.878465435096429E-015
  1.410000000000000E-002   -1.372566757772514E-014
  1.420000000000000E-002   -2.518129876377133E-014
  1.430000000000000E-002   -3.647177033357678E-014
  1.440000000000000E-002   -4.672032855544454E-014
  1.450000000000000E-002   -5.499925676951344E-014
  1.460000000000000E-002   -6.039380263059243E-014
  1.470000000000000E-002   -6.207455721848489E-014
  1.480000000000000E-002   -5.937381770111393E-014
  1.490000000000000E-002   -5.186048570478062E-014
  1.500000000000000E-002   -3.940739548912140E-014
  1.510000000000000E-002   -2.224466933894256E-014
  1.520000000000000E-002   -9.929184725164723E-016
  1.530000000000000E-002    2.332923957618792E-014
  1.540000000000000E-002    4.932748833687813E-014
  1.550000000000000E-002    7.528641760624841E-014
  1.560000000000000E-002    9.925657254207383E-014
  1.570000000000000E-002    1.191715954938593E-013
  1.580000000000000E-002    1.329903695127662E-013
  1.590000000000000E-002    1.388564091763281E-013
  1.600000000000000E-002    1.352643286839653E-013
  1.610000000000000E-002    1.212213966827488E-013
  1.620000000000000E-002    9.639082802157383E-014
  1.630000000000000E-002    6.120339211548439E-014
  1.640000000000000E-002    1.692449757966527E-014
  1.650000000000000E-002   -3.433412665380324E-014
  1.660000000000000E-002   -8.966610145531216E-014
  1.670000000000000E-002   -1.454893871330176E-013
  1.680000000000000E-002   -1.977318613137384E-013
  1.690000000000000E-002   -2.420774552359754E-013
  1.700000000000000E-002   -2.742612690144799E-013
  1.710000000000000E-002   -2.903971439590144E-013
  1.720000000000000E-002   -2.873164595021700E-013
  1.730000000000000E-002   -2.628935167063190E-013
  1.740000000000000E-002   -2.163312211694262E-013
  1.750000000000000E-002   -1.483804147375104E-013
  1.760000000000000E-002   -6.146842946539810E-014
  1.770000000000000E-002    4.028361029597421E-014
  1.780000000000000E-002    1.511689554275181E-013
  1.790000000000000E-002    2.641352518207362E-013
  1.800000000000000E-002    3.711533674412560E-013
  1.810000000000000E-002    4.637020044779419E-013
  1.820000000000000E-002    5.333445600524609E-013
  1.830000000000000E-002    5.723651015630113E-013
  1.840000000000000E-002    5.744225475011820E-013
  1.850000000000000E-002    5.351754826785146E-013
  1.860000000000000E-002    4.528274911847330E-013
  1.870000000000000E-002    3.285434314087460E-013