 -4.000000000000000E-002    0.000000000000000E+000
 -3.990000000000000E-002    0.000000000000000E+000
 -3.980000000000000E-002    0.000000000000000E+000
 -3.970000000000000E-002    0.000000000000000E+000
 -3.960000000000000E-002    0.000000000000000E+000
 -3.950000000000000E-002    0.000000000000000E+000
 -3.940000000000000E-002    0.000000000000000E+000
 -3.930000000000000E-002    0.000000000000000E+000
 -3.920000000000000E-002    0.000000000000000E+000
 -3.910000000000000E-002    0.000000000000000E+000
 -3.900000000000000E-002    0.000000000000000E+000
 -3.890000000000000E-002    0.000000000000000E+000
 -3.880000000000000E-002    0.000000000000000E+000
 -3.870000000000000E-002    0.000000000000000E+000
 -3.860000000000000E-002    0.000000000000000E+000
 -3.850000000000000E-002    0.000000000000000E+000
 -3.840000000000000E-002    0.000000000000000E+000
 -3.830000000000000E-002    0.000000000000000E+000
 -3.820000000000000E-002    0.000000000000000E+000
 -3.810000000000000E-002    0.000000000000000E+000
 -3.800000000000000E-002    0.000000000000000E+000
 -3.790000000000000E-002    0.000000000000000E+000
 -3.780000000000000E-002    0.000000000000000E+000
 -3.770000000000000E-002    0.000000000000000E+000
 -3.760000000000000E-002    0.000000000000000E+000
 -3.750000000000000E-002    0.000000000000000E+000
 -3.740000000000000E-002    0.000000000000000E+000
 -3.730000000000000E-002    0.000000000000000E+000
 -3.720000000000000E-002    0.000000000000000E+000
 -3.710000000000000E-002    0.000000000000000E+000
 -3.700000000000000E-002    0.000000000000000E+000
 -3.690000000000000E-002    0.000000000000000E+000
 -3.680000000000000E-002    0.000000000000000E+000
 -3.670000000000000E-002    0.000000000000000E+000
 -3.660000000000000E-002   -4.578327640411853E-047
 -3.650000000000000E-002   -1.429937324331115E-046
 -3.640000000000000E-002   -3.687542686976328E-046
 -3.630000000000000E-002   -9.751094219063346E-046
 -3.620000000000000E-002   -2.727028288815317E-045
 -3.610000000000000E-002   -7.576604366298995E-045
 -3.600000000000000E-002   -2.042110446797997E-044
 -3.590000000000000E-002   -5.196072975769186E-044
 -3.580000000000000E-002   -1.284214574307408E-043
 -3.570000000000000E-002   -3.043506553203059E-043
 -3.560000000000000E-002   -6.934336209889687E-043
 -3.550000000000000E-002   -1.518106214854403E-042
 -3.540000000000000E-002   -3.199908281688484E-042
 -3.530000000000000E-002   -6.492215434031159E-042
 -3.520000000000000E-002   -1.267365028987275E-041
 -3.510000000000000E-002   -2.378148844475775E-041
 -3.500000000000000E-002   -4.282522490111542E-041
 -3.490000000000000E-002   -7.378911451359702E-041
 -3.480000000000000E-002   -1.210614006189575E-040
 -3.470000000000000E-002   -1.875644883902543E-040
 -3.460000000000000E-002   -2.703735160375647E-040
 -3.450000000000000E-002   -3.519148766603911E-040
 -3.440000000000000E-002   -3.840042056463601E-040
 -3.430000000000000E-002   -2.612233532599550E-040
 -3.420000000000000E-002    2.201753550899433E-040
 -3.410000000000000E-002    1.420717832296601E-039
 -3.400000000000000E-002    3.932916020228242E-039
 -3.390000000000000E-002    8.664802365475814E-039
 -3.380000000000000E-002    1.690851092078551E-038
 -3.370000000000000E-002    3.034588660518707E-038
 -3.360000000000000E-002    5.090539558252906E-038
 -3.350000000000000E-002    8.033226943380645E-038
 -3.340000000000000E-002    1.192681138303802E-037
 -3.330000000000000E-002    1.655646273932594E-037
 -3.320000000000000E-002    2.114963623532105E-037
 -3.310000000000000E-002    2.395225267682894E-037
 -3.300000000000000E-002    2.163331841668005E-037
 -3.290000000000000E-002    8.518007940552539E-038
 -3.280000000000000E-002   -2.429496236400484E-037
 -3.270000000000000E-002   -8.977758678757382E-037
 -3.260000000000000E-002   -2.054688056058535E-036
 -3.250000000000000E-002   -3.930879652061159E-036
 -3.240000000000000E-002   -6.764324940793722E-036
 -3.230000000000000E-002   -1.076368151514026E-035
 -3.220000000000000E-002   -1.601346789732412E-035
 -3.210000000000000E-002   -2.231589746307709E-035
 -3.200000000000000E-002   -2.895017919814206E-035
 -3.190000000000000E-002   -3.433436866352226E-035
 -3.180000000000000E-002   -3.558759005621788E-035
 -3.170000000000000E-002   -2.801601989701681E-035
 -3.160000000000000E-002   -4.589778775302036E-036
 -3.150000000000000E-002    4.445528867747438E-035
 -3.140000000000000E-002    1.316635168395316E-034
 -3.130000000000000E-002    2.717064834116272E-034
 -3.120000000000000E-002    4.795481415195800E-034
 -3.110000000000000E-002    7.668121507801243E-034
 -3.100000000000000E-002    1.135644369728574E-033
 -3.090000000000000E-002    1.569375160590989E-033
 -3.080000000000000E-002    2.019489282004960E-033
 -3.070000000000000E-002    2.388915061136590E-033
 -3.060000000000000E-002    2.512586065533478E-033
 -3.050000000000000E-002    2.137730616837712E-033
 -3.040000000000000E-002    9.084976438283476E-034
 -3.030000000000000E-002   -1.637652905388132E-033
 -3.020000000000000E-002   -6.051059769446407E-033
 -3.010000000000000E-002   -1.291434362399329E-032
 -3.000000000000000E-002   -2.273343210649990E-032
 -2.990000000000000E-002   -3.575744522239618E-032
 -2.980000000000000E-002   -5.171246217813068E-032
 -2.970000000000000E-002   -6.944248870466788E-032
 -2.960000000000000E-002   -8.646711007561110E-032
 -2.950000000000000E-002   -9.849154483869087E-032
 -2.940000000000000E-002   -9.894243966051055E-032
 -2.930000000000000E-002   -7.865128512092458E-032
 -2.920000000000000E-002   -2.586422397157716E-032
 -2.910000000000000E-002    7.318544939639918E-032
 -2.900000000000000E-002    2.328591083192977E-031
 -2.890000000000000E-002    4.655483056432144E-031
 -2.880000000000000E-002    7.776981885350776E-031
 -2.870000000000000E-002    1.164268183721732E-030
 -2.860000000000000E-002    1.601703004911643E-030
 -2.850000000000000E-002    2.039843450270934E-030
 -2.840000000000000E-002    2.393705949853479E-030
 -2.830000000000000E-002    2.536690353850923E-030
 -2.820000000000000E-002    2.297488473270046E-030
 -2.810000000000000E-002    1.463669600574098E-030
 -2.800000000000000E-002   -2.045342303199163E-031
 -2.790000000000000E-002   -2.946539045546683E-030
 -2.780000000000000E-002   -6.956535989788146E-030
 -2.770000000000000E-002   -1.231947014903257E-029
 -2.760000000000000E-002   -1.892836172202177E-029
 -2.750000000000000E-002   -2.638723168306478E-029
 -2.740000000000000E-002   -3.390900581921303E-029
 -2.730000000000000E-002   -4.022401755884945E-029
 -2.720000000000000E-002   -4.352150450916182E-029
 -2.710000000000000E-002   -4.145292359565018E-029
 -2.700000000000000E-002   -3.123055181106196E-029
 -2.690000000000000E-002   -9.855962700376608E-030
 -2.680000000000000E-002    2.549146262243527E-029
 -2.670000000000000E-002    7.688777049518996E-029
 -2.660000000000000E-002    1.449224325266827E-028
 -2.650000000000000E-002    2.278153790509895E-028
 -2.640000000000000E-002    3.204679068354986E-028
 -2.630000000000000E-002    4.135703564570360E-028
 -2.620000000000000E-002    4.929392254816139E-028
 -2.610000000000000E-002    5.393011753175899E-028
 -2.600000000000000E-002    5.287713651310104E-028
 -2.590000000000000E-002    4.342765746099825E-028
 -2.580000000000000E-002    2.281372174858761E-028
 -2.570000000000000E-002   -1.140627803882807E-028
 -2.560000000000000E-002   -6.083339293952508E-028
 -2.550000000000000E-002   -1.256084054062657E-027
 -2.540000000000000E-002   -2.037337431800274E-027
 -2.530000000000000E-002   -2.904126377876583E-027
 -2.520000000000000E-002   -3.775096385163644E-027
 -2.510000000000000E-002   -4.532608937484886E-027
 -2.500000000000000E-002   -5.023766363668961E-027
 -2.490000000000000E-002   -5.066772691405290E-027
 -2.480000000000000E-002   -4.463815662845776E-027
 -2.470000000000000E-002   -3.021176492967224E-027
 -2.460000000000000E-002   -5.765093646682953E-028
 -2.450000000000000E-002    2.967773778325808E-027
 -2.440000000000000E-002    7.607298773146971E-027
 -2.430000000000000E-002    1.319829681903255E-026
 -2.420000000000000E-002    1.942476221179834E-026
 -2.410000000000000E-002    2.577598367589292E-026
 -2.400000000000000E-002    3.154071567221160E-026
 -2.390000000000000E-002    3.582400588055538E-026
 -2.380000000000000E-002    3.759164009890734E-026
 -2.370000000000000E-002    3.574505474631971E-026
 -2.360000000000000E-002    2.922661018032717E-026
 -2.350000000000000E-002    1.715131703351978E-026
 -2.340000000000000E-002   -1.043071652958262E-027
 -2.330000000000000E-002   -2.543990266240932E-026
 -2.320000000000000E-002   -5.549725163578798E-026
 -2.310000000000000E-002   -8.992957064189469E-026
 -2.300000000000000E-002   -1.266361572736956E-025
 -2.290000000000000E-002   -1.626935681556742E-025
 -2.280000000000000E-002   -1.944251697973132E-025
 -2.270000000000000E-002   -2.175548875775909E-025
 -2.260000000000000E-002   -2.274444164512079E-025
 -2.250000000000000E-002   -2.194049845703399E-025
 -2.240000000000000E-002   -1.890669940044943E-025
 -2.230000000000000E-002   -1.327851491578659E-025
 -2.220000000000000E-002   -4.805435570791792E-026
 -2.210000000000000E-002    6.608734606475034E-026
 -2.200000000000000E-002    2.086868896343558E-025
 -2.190000000000000E-002    3.765454581211899E-025
 -2.180000000000000E-002    5.639298197094902E-025
 -2.170000000000000E-002    7.623197921490548E-025
 -2.160000000000000E-002    9.601839685326357E-025
 -2.150000000000000E-002    1.142784552939733E-024
 -2.140000000000000E-002    1.292031049805873E-024
 -2.130000000000000E-002    1.386435982288666E-024
 -2.120000000000000E-002    1.401269224169467E-024
 -2.110000000000000E-002    1.309056460515389E-024
 -2.100000000000000E-002    1.080613023067358E-024
 -2.090000000000000E-002    6.868319233181425E-025
 -2.080000000000000E-002    1.014409045508004E-025
 -2.070000000000000E-002   -6.951086406901880E-025
 -2.060000000000000E-002   -1.710572732207846E-024
 -2.050000000000000E-002   -2.934797593256392E-024
 -2.040000000000000E-002   -4.332934015893295E-024
 -2.030000000000000E-002   -5.838657198931693E-024
 -2.020000000000000E-002   -7.348376908278782E-024
 -2.010000000000000E-002   -8.717706377044539E-024
 -2.000000000000000E-002   -9.761649974674230E-024
 -1.990000000000000E-002   -1.026000535663509E-023
 -1.980000000000000E-002   -9.969303155706800E-024
 -1.970000000000000E-002   -8.642148299537153E-024
 -1.960000000000000E-002   -6.054104794467235E-024
 -1.950000000000000E-002   -2.037243908959408E-024
 -1.940000000000000E-002    3.481735074420553E-024
 -1.930000000000000E-002    1.044220479524142E-023
 -1.920000000000000E-002    1.861374993039543E-023
 -1.910000000000000E-002    2.756931108737006E-023
 -1.900000000000000E-002    3.667331441859946E-023
 -1.890000000000000E-002    4.509050583395721E-023
 -1.880000000000000E-002    5.182002421194907E-023
 -1.870000000000000E-002    5.575723079213738E-023
 -1.860000000000000E-002    5.578279573293337E-023
 -1.850000000000000E-002    5.087500619976044E-023
 -1.840000000000000E-002    4.023733455650812E-023
 -1.830000000000000E-002    2.342963190095229E-023
 -1.820000000000000E-002    4.883814661167447E-025
 -1.810000000000000E-002   -2.798006826614942E-023
 -1.800000000000000E-002   -6.074899743116697E-023
 -1.790000000000000E-002   -9.597672309091816E-023
 -1.780000000000000E-002   -1.312760734992475E-022
 -1.770000000000000E-002   -1.638492953671075E-022
 -1.760000000000000E-002   -1.906813551280590E-022
 -1.750000000000000E-002   -2.087759723006246E-022
 -1.740000000000000E-002   -2.154110434984901E-022
 -1.730000000000000E-002   -2.083845457118635E-022
 -1.720000000000000E-002   -1.862204813629505E-022
 -1.710000000000000E-002   -1.483069636289365E-022
 -1.700000000000000E-002   -9.494663114440075E-023
 -1.690000000000000E-002   -2.731188236049649E-023
 -1.680000000000000E-002    5.268661373024066E-023
 -1.670000000000000E-002    1.425925395759345E-022
 -1.660000000000000E-002    2.396164654294504E-022
 -1.650000000000000E-002    3.408162487243175E-022
 -1.640000000000000E-002    4.431902407293642E-022
 -1.630000000000000E-002    5.436354235667091E-022
 -1.620000000000000E-002    6.387419511448926E-022
 -1.610000000000000E-002    7.244251215458587E-022
 -1.600000000000000E-002    7.954351231164845E-022
 -1.590000000000000E-002    8.448268608008873E-022
 -1.580000000000000E-002    8.635129107433223E-022
 -1.570000000000000E-002    8.400515293321230E-022
 -1.560000000000000E-002    7.608333827889463E-022
 -1.550000000000000E-002    6.108161071946597E-022
 -1.540000000000000E-002    3.749116342487207E-022
 -1.530000000000000E-002    4.005586811087485E-023
 -1.520000000000000E-002   -4.021117787215812E-022
 -1.510000000000000E-002   -9.521521539653434E-022
 -1.500000000000000E-002   -1.599631834114213E-021
 -1.490000000000000E-002   -2.320258767167538E-021
 -1.480000000000000E-002   -3.073854395708371E-021
 -1.470000000000000E-002   -3.803692769629806E-021
 -1.460000000000000E-002   -4.437691134424095E-021
 -1.450000000000000E-002   -4.891812077989342E-021
 -1.440000000000000E-002   -5.075833168329771E-021
 -1.430000000000000E-002   -4.901368674542314E-021
 -1.420000000000000E-002   -4.291707187102288E-021
 -1.410000000000000E-002   -3.192701439725162E-021
 -1.400000000000000E-002   -1.583642226189254E-021
 -1.390000000000000E-002    5.131740692488922E-022
 -1.380000000000000E-002    3.025577675479201E-021
 -1.370000000000000E-002    5.828702212511249E-021
 -1.360000000000000E-002    8.747309196767569E-021
 -1.350000000000000E-002    1.156395367363220E-020
 -1.340000000000000E-002    1.403309047027341E-020
 -1.330000000000000E-002    1.590053667598560E-020
 -1.320000000000000E-002    1.692693388576530E-020
 -1.310000000000000E-002    1.691315876096902E-020
 -1.300000000000000E-002    1.572503507979905E-020
 -1.290000000000000E-002    1.331435925965961E-020
 -1.280000000000000E-002    9.733210896976882E-021
 -1.270000000000000E-002    5.138859752330687E-021
 -1.260000000000000E-002   -2.126797191208330E-022
 -1.250000000000000E-002   -5.985283698545892E-021
 -1.240000000000000E-002   -1.179297512542493E-020
 -1.230000000000000E-002   -1.723963938507241E-020
 -1.220000000000000E-002   -2.196444329624333E-020
 -1.210000000000000E-002   -2.568781269123414E-020
 -1.200000000000000E-002   -2.825180685200845E-020
 -1.190000000000000E-002   -2.964839073044199E-020
 -1.180000000000000E-002   -3.002946471879634E-020
 -1.170000000000000E-002   -2.969382589291778E-020
 -1.160000000000000E-002   -2.904839438192073E-020
 -1.150000000000000E-002   -2.854402881893280E-020
 -1.140000000000000E-002   -2.858980048125117E-020
 -1.130000000000000E-002   -2.945341966925539E-020
 -1.120000000000000E-002   -3.115909732167207E-020
 -1.110000000000000E-002   -3.339710754667259E-020
 -1.100000000000000E-002   -3.546096063805245E-020
 -1.090000000000000E-002   -3.622817156652739E-020
 -1.080000000000000E-002   -3.419851646095559E-020
 -1.070000000000000E-002   -2.759939913277862E-020
 -1.060000000000000E-002   -1.456138273281035E-020
 -1.050000000000000E-002    6.641335091262765E-021
 -1.040000000000000E-002    3.730029823466725E-020
 -1.030000000000000E-002    7.795653894711558E-020
 -1.020000000000000E-002    1.280919735884324E-019
 -1.010000000000000E-002    1.858682266914911E-019
 -1.000000000000000E-002    2.479555967310257E-019
 -9.899999999999999E-003    3.094931205947905E-019
 -9.800000000000000E-003    3.642136867713861E-019
 -9.699999999999999E-003    4.047554499111154E-019
 -9.599999999999999E-003    4.231635042549050E-019
 -9.500000000000000E-003    4.115643411233107E-019
 -9.399999999999999E-003    3.629728972537675E-019
 -9.299999999999999E-003    2.721702379100863E-019
 -9.200000000000000E-003    1.365709744293478E-019
 -9.099999999999999E-003   -4.301092172177867E-020
 -8.999999999999999E-003   -2.617929617368151E-019
 -8.900000000000000E-003   -5.107375990454103E-019
 -8.799999999999999E-003   -7.766152783604903E-019
 -8.699999999999999E-003   -1.042454797181172E-018
 -8.600000000000000E-003   -1.288380764219476E-018
 -8.499999999999999E-003   -1.492798000917544E-018
 -8.399999999999999E-003   -1.633842490104887E-018
 -8.300000000000000E-003   -1.690984912149300E-018
 -8.199999999999999E-003   -1.646652163767133E-018
 -8.100000000000000E-003   -1.487725576278773E-018
 -8.000000000000000E-003   -1.206786839455330E-018
 -7.899999999999999E-003   -8.030116615348342E-019
 -7.800000000000000E-003   -2.826548048443556E-019
 -7.699999999999999E-003    3.408774467076405E-019
 -7.599999999999999E-003    1.047319204225115E-018
 -7.499999999999999E-003    1.810109031786762E-018
 -7.399999999999999E-003    2.597108431064122E-018
 -7.299999999999999E-003    3.371354976031208E-018
 -7.199999999999999E-003    4.091760728042287E-018
 -7.100000000000000E-003    4.713720182186888E-018
 -6.999999999999999E-003    5.189675679372965E-018
 -6.899999999999999E-003    5.469775773905970E-018
 -6.800000000000000E-003    5.502848691163269E-018
 -6.699999999999999E-003    5.237977442300195E-018
 -6.599999999999999E-003    4.626977784423790E-018
 -6.499999999999999E-003    3.628043234164861E-018
 -6.399999999999999E-003    2.210707184359926E-018
 -6.299999999999999E-003    3.620894174489997E-019
 -6.199999999999999E-003   -1.905852301607715E-018
 -6.100000000000000E-003   -4.548630348002386E-018
 -5.999999999999999E-003   -7.481950881007423E-018
 -5.899999999999999E-003   -1.057596798228252E-017
 -5.800000000000000E-003   -1.365234901151573E-017
 -5.699999999999999E-003   -1.648547756130965E-017
 -5.599999999999999E-003   -1.880898953777244E-017
 -5.499999999999999E-003   -2.032851707881849E-017
 -5.399999999999999E-003   -2.074099230070177E-017
 -5.299999999999999E-003   -1.976017926036953E-017
 -5.199999999999999E-003   -1.714728491719370E-017
 -5.099999999999999E-003   -1.274462566922605E-017
 -4.999999999999999E-003   -6.509519664434948E-018
 -4.899999999999999E-003    1.455098802371588E-018
 -4.799999999999999E-003    1.087725347719488E-017
 -4.699999999999999E-003    2.130364979285404E-017
 -4.599999999999999E-003    3.210213973608152E-017
 -4.499999999999999E-003    4.248166943404817E-017
 -4.399999999999999E-003    5.153119798352584E-017
 -4.299999999999999E-003    5.827741666458042E-017
 -4.199999999999999E-003    6.175914408398901E-017
 -4.099999999999999E-003    6.111432757158765E-017
 -3.999999999999999E-003    5.567356378274183E-017
 -3.899999999999999E-003    4.505252300344131E-017
 -3.799999999999999E-003    2.923446476153500E-017
 -3.699999999999999E-003    8.633662880691250E-018
 -3.599999999999999E-003   -1.586907344640176E-017
 -3.499999999999999E-003   -4.292631143396268E-017
 -3.399999999999999E-003   -7.076471327214294E-017
 -3.299999999999999E-003   -9.726901397551397E-017
 -3.199999999999999E-003   -1.201080709618168E-016
 -3.099999999999999E-003   -1.368981319414609E-016
 -2.999999999999999E-003   -1.453942930547618E-016
 -2.899999999999999E-003   -1.436976708292250E-016
 -2.799999999999999E-003   -1.304627796345978E-016
 -2.699999999999999E-003   -1.050876180127566E-016
 -2.599999999999999E-003   -6.786835875236969E-017
 -2.499999999999999E-003   -2.010105750899135E-017
 -2.399999999999999E-003    3.588475224395456E-017
 -2.299999999999999E-003    9.677208644140255E-017
 -2.199999999999999E-003    1.583883939771702E-016
 -2.099999999999999E-003    2.159236264099139E-016
 -1.999999999999999E-003    2.642274261960369E-016
 -1.899999999999999E-003    2.981720508978833E-016
 -1.799999999999999E-003    3.130600048068197E-016
 -1.699999999999999E-003    3.050502023029116E-016
 -1.599999999999999E-003    2.715715848755669E-016
 -1.499999999999999E-003    2.116907909286044E-016
 -1.399999999999999E-003    1.264003182273719E-016
 -1.299999999999999E-003    1.879560380039631E-017
 -1.199999999999999E-003   -1.058852821325881E-016
 -1.099999999999999E-003   -2.403783366528026E-016
 -9.999999999999989E-004   -3.756763280004256E-016
 -8.999999999999990E-004   -5.014756623623945E-016
 -7.999999999999990E-004   -6.067735328819084E-016
 -6.999999999999989E-004   -6.805894359989308E-016
 -5.999999999999990E-004   -7.127728953228933E-016
 -4.999999999999989E-004   -6.948501388213322E-016
 -3.999999999999989E-004   -6.208544411172779E-016
 -2.999999999999989E-004   -4.880809428884423E-016
 -1.999999999999989E-004   -2.977055634797994E-016
 -9.999999999999892E-005   -5.521161448655126E-017
  1.084202172485504E-018    2.294260223275093E-016
  1.000000000000011E-004    5.418373523584997E-016
  2.000000000000011E-004    8.636599946757403E-016
  3.000000000000011E-004    1.173255807538787E-015
  4.000000000000011E-004    1.446733022214688E-015
  5.000000000000011E-004    1.659243343160154E-015
  6.000000000000011E-004    1.786509764917002E-015
  7.000000000000011E-004    1.806517231093942E-015
  8.000000000000011E-004    1.701286708949951E-015
  9.000000000000012E-004    1.458636523372692E-015
  1.000000000000001E-003    1.073825280037944E-015
  1.100000000000001E-003    5.509622038508887E-016
  1.200000000000001E-003   -9.593208926684062E-017
  1.300000000000001E-003   -8.423307215249655E-016
  1.400000000000001E-003   -1.653177848292077E-015
  1.500000000000001E-003   -2.483534964640002E-015
  1.600000000000001E-003   -3.279965322467211E-015
  1.700000000000001E-003   -3.982697682094068E-015
  1.800000000000001E-003   -4.528569398276181E-015
  1.900000000000001E-003   -4.854696505034888E-015
  2.000000000000001E-003   -4.902764206853558E-015
  2.100000000000001E-003   -4.623760712322385E-015
  2.200000000000001E-003   -3.982913848401055E-015
  2.300000000000001E-003   -2.964521689767969E-015
  2.400000000000001E-003   -1.576313268347482E-015
  2.500000000000001E-003    1.470677327404818E-016
  2.600000000000001E-003    2.141879112610165E-015
  2.700000000000001E-003    4.314805747301200E-015
  2.800000000000001E-003    6.544555877812208E-015
  2.900000000000001E-003    8.685788604488683E-015
  3.000000000000001E-003    1.057551281081251E-014
  3.100000000000001E-003    1.204191088308935E-014
  3.200000000000001E-003    1.291533971674617E-014
  3.300000000000001E-003    1.304104592526051E-014
  3.400000000000001E-003    1.229290115440203E-014
  3.500000000000001E-003    1.058725097478385E-014
  3.600000000000001E-003    7.895824547407767E-015
  3.700000000000001E-003    4.256525452921468E-015
  3.800000000000001E-003   -2.190706741388558E-016
  3.900000000000001E-003   -5.342633873252031E-015
  4.000000000000001E-003   -1.085132343273166E-014
  4.100000000000001E-003   -1.641600608085586E-014
  4.200000000000001E-003   -2.165568046392230E-014
  4.300000000000001E-003   -2.615789725848151E-014
  4.400000000000001E-003   -2.950445149495096E-014
  4.500000000000001E-003   -3.130108357030020E-014
  4.600000000000002E-003   -3.120947365155766E-014
  4.700000000000001E-003   -2.897938329297478E-014
  4.800000000000001E-003   -2.447852269697506E-014
  4.900000000000002E-003   -1.771759442689336E-014
  5.000000000000001E-003   -8.868046093686457E-015
  5.100000000000001E-003    1.729700774055559E-015
  5.200000000000001E-003    1.356928181042920E-014
  5.300000000000002E-003    2.599379059747459E-014
  5.400000000000001E-003    3.822383813702404E-014
  5.500000000000001E-003    4.939768208393924E-014
  5.600000000000002E-003    5.862187948413753E-014
  5.700000000000001E-003    6.502998047717957E-014
  5.800000000000001E-003    6.784599389324166E-014
  5.900000000000002E-003    6.644866452738131E-014
  6.000000000000001E-003    6.043214407936914E-014
  6.100000000000001E-003    4.965847064903693E-014
  6.200000000000002E-003    3.429741790080260E-014
  6.300000000000002E-003    1.484962417558121E-014
  6.400000000000001E-003   -7.850240841763376E-015
  6.500000000000001E-003   -3.265260507674003E-014
  6.600000000000002E-003   -5.813543832413923E-014
  6.700000000000001E-003   -8.266955758527661E-014
  6.800000000000001E-003   -1.045049811541365E-013
  6.900000000000002E-003   -1.218746531261155E-013
  7.000000000000001E-003   -1.331107635876026E-013
  7.100000000000001E-003   -1.367671508975828E-013
  7.200000000000002E-003   -1.317406394014112E-013
  7.300000000000002E-003   -1.173829967424978E-013
  7.400000000000001E-003   -9.359542887291023E-014
  7.500000000000001E-003   -6.089717151615482E-014
  7.600000000000002E-003   -2.046094312419385E-014
  7.700000000000001E-003    2.589091997569040E-014
  7.800000000000001E-003    7.573396323134343E-014
  7.900000000000001E-003    1.261346491933012E-013
  8.000000000000002E-003    1.737881435470524E-013
  8.100000000000001E-003    2.151969443258773E-013
  8.200000000000001E-003    2.468832948784739E-013
  8.300000000000002E-003    2.656251532712855E-013
  8.400000000000001E-003    2.687025471059263E-013
  8.500000000000002E-003    2.541390780397837E-013
  8.600000000000002E-003    2.209213008578917E-013
  8.700000000000001E-003    1.691784417198516E-013
  8.800000000000002E-003    1.003052624115154E-013
  8.900000000000002E-003    1.701283835514332E-014
  9.000000000000001E-003   -7.670506430105700E-014
  9.100000000000002E-003   -1.756976829780077E-013
  9.200000000000002E-003   -2.738771794583648E-013
  9.300000000000001E-003   -3.645288891108854E-013
  9.400000000000002E-003   -4.407003547414237E-013
  9.500000000000001E-003   -4.956514663150501E-013
  9.600000000000001E-003   -5.233407588544262E-013
  9.700000000000002E-003   -5.189182071547904E-013
  9.800000000000001E-003   -4.791897415661352E-013
  9.900000000000001E-003   -4.030185047466151E-013
  1.000000000000000E-002   -2.916263103959038E-013
  1.010000000000000E-002   -1.487637788149108E-013
  1.020000000000000E-002    1.927754522641252E-014
  1.030000000000000E-002    2.038291682612127E-013
  1.040000000000000E-002    3.941926102540613E-013
  1.050000000000000E-002    5.781641837902895E-013
  1.060000000000000E-002    7.427187860217758E-013
  1.070000000000000E-002    8.748212401903994E-013
  1.080000000000000E-002    9.623197498974538E-013
  1.090000000000000E-002    9.948674925792231E-013
  1.100000000000000E-002    9.648094664972361E-013
  1.110000000000000E-002    8.679689487419936E-013
  1.120000000000000E-002    7.042685813614158E-013
  1.130000000000000E-002    4.781267213291521E-013
  1.140000000000000E-002    1.985798305262115E-013
  1.150000000000000E-002   -1.209023387280582E-013
  1.160000000000000E-002   -4.629235523572944E-013
  1.170000000000000E-002   -8.069843109639865E-013
  1.180000000000000E-002   -1.130590290320466E-012
  1.190000000000000E-002   -1.410595239467105E-012
  1.200000000000000E-002   -1.624704290936277E-012
  1.210000000000000E-002   -1.753046353688293E-012
  1.220000000000000E-002   -1.779714265044410E-012
  1.230000000000000E-002   -1.694162419559805E-012
  1.240000000000000E-002   -1.492354488176220E-012
  1.250000000000000E-002   -1.177564127371494E-012
  1.260000000000000E-002   -7.607447269671437E-013
  1.270000000000000E-002   -2.604120186640220E-013
  1.280000000000000E-002    2.979908637514754E-013
  1.290000000000000E-002    8.832394950079304E-013
  1.300000000000000E-002    1.459946244031202E-012
  1.310000000000000E-002    1.990574670129244E-012
  1.320000000000000E-002    2.437742123826878E-012
  1.330000000000000E-002    2.766676038766849E-012
  1.340000000000000E-002    2.947671436213188E-012
  1.350000000000000E-002    2.958383031455523E-012
  1.360000000000000E-002    2.785789180215553E-012
  1.370000000000000E-002    2.427676858012880E-012
  1.380000000000000E-002    1.893516229347369E-012
  1.390000000000000E-002    1.204628460020090E-012
  1.400000000000000E-002    3.935914790009658E-013
  1.410000000000000E-002   -4.971259701416233E-013
  1.420000000000000E-002   -1.417258691271324E-012
  1.430000000000000E-002   -2.311476984826607E-012
  1.440000000000000E-002   -3.122613196072907E-012
  1.450000000000000E-002   -3.795205258920591E-012
  1.460000000000000E-002   -4.279139896526331E-012
  1.470000000000000E-002   -4.533170698541841E-012
  1.480000000000000E-002   -4.528068364695098E-012
  1.490000000000000E-002   -4.249177111023841E-012
  1.500000000000000E-002   -3.698183010867459E-012
  1.510000000000000E-002   -2.893925666979210E-012
  1.520000000000000E-002   -1.872150540414447E-012
  1.530000000000000E-002   -6.841561731159754E-013
  1.540000000000000E-002    6.056362645095954E-013
  1.550000000000000E-002    1.923097240288367E-012
  1.560000000000000E-002    3.188617087011758E-012
  1.570000000000000E-002    4.321917324673791E-012
  1.580000000000000E-002    5.247165767384445E-012
  1.590000000000000E-002    5.898076783339718E-012
  1.600000000000000E-002    6.222658826039945E-012
  1.610000000000000E-002    6.187281269399498E-012
  1.620000000000000E-002    5.779753900367860E-012
  1.630000000000000E-002    5.011154489865374E-012
  1.640000000000000E-002    3.916223856476721E-012
  1.650000000000000E-002    2.552213752008696E-012
  1.660000000000000E-002    9.961774818565781E-013
  1.670000000000000E-002   -6.592005269716749E-013
  1.680000000000000E-002   -2.311044974263221E-012
  1.690000000000000E-002   -3.852704707062839E-012
  1.700000000000000E-002   -5.180771915423559E-012
  1.710000000000000E-002   -6.202256846601247E-012
  1.720000000000000E-002   -6.841461051005621E-012
  1.730000000000000E-002   -7.046037217596750E-012
  1.740000000000000E-002   -6.791798803113274E-012
  1.750000000000000E-002   -6.085860295724186E-012
  1.760000000000000E-002   -4.967786352779458E-012
  1.770000000000000E-002   -3.508551745837476E-012
  1.780000000000000E-002   -1.807230725663862E-012
  1.790000000000000E-002    1.450606649829513E-014
  1.800000000000000E-002    1.819856997129643E-012
  1.810000000000000E-002    3.465938958212761E-012
  1.820000000000000E-002    4.813915384247129E-012
  1.830000000000000E-002    5.739581175297622E-012
  1.840000000000000E-002    6.143695291427938E-012
  1.850000000000000E-002    5.961355419060555E-012
  1.860000000000000E-002    5.169663002471436E-012
  1.870000000000000E-002    3.793032047478393E-012