 -4.000000000000000E-002    0.000000000000000E+000
 -3.990000000000000E-002    6.134516955097821E-009
 -3.980000000000000E-002    2.039457854634250E-008
 -3.970000000000000E-002    4.625045099142060E-008
 -3.960000000000000E-002    8.833410149487904E-008
 -3.950000000000000E-002    1.519831837171625E-007
 -3.940000000000000E-002    2.427284057490673E-007
 -3.930000000000000E-002    3.658137633477077E-007
 -3.920000000000000E-002    5.258291995277114E-007
 -3.910000000000000E-002    7.265102908923413E-007
 -3.900000000000000E-002    9.707231135289119E-007
 -3.890000000000000E-002    1.260611783522482E-006
 -3.880000000000000E-002    1.597847506418541E-006
 -3.870000000000000E-002    1.983893514882708E-006
 -3.860000000000000E-002    2.420185138228618E-006
 -3.850000000000000E-002    2.908137369653877E-006
 -3.840000000000000E-002    3.448917250972447E-006
 -3.830000000000000E-002    4.042961468275794E-006
 -3.820000000000000E-002    4.689268398539070E-006
 -3.810000000000000E-002    5.384550773537999E-006
 -3.800000000000000E-002    6.122367233602139E-006
 -3.790000000000000E-002    6.892383896320484E-006
 -3.780000000000000E-002    7.679912552954536E-006
 -3.770000000000000E-002    8.465845668169492E-006
 -3.760000000000000E-002    9.227070054436629E-006
 -3.750000000000000E-002    9.937365225416152E-006
 -3.740000000000000E-002    1.056872613917636E-005
 -3.730000000000000E-002    1.109298676620177E-005
 -3.720000000000000E-002    1.148355034760316E-005
 -3.710000000000000E-002    1.171701934436394E-005
 -3.700000000000000E-002    1.177450872853061E-005
 -3.690000000000000E-002    1.164245994584103E-005
 -3.680000000000000E-002    1.131284085965080E-005
 -3.670000000000000E-002    1.078268352375574E-005
 -3.660000000000000E-002    1.005303018465874E-005
 -3.650000000000000E-002    9.127415161661933E-006
 -3.640000000000000E-002    8.010108541393710E-006
 -3.630000000000000E-002    6.704369546498290E-006
 -3.620000000000000E-002    5.210970871624283E-006
 -3.610000000000000E-002    3.527215011484095E-006
 -3.600000000000000E-002    1.646599700196514E-006
 -3.590000000000000E-002   -4.408170596135819E-007
 -3.580000000000000E-002   -2.747406064375643E-006
 -3.570000000000000E-002   -5.286466571477904E-006
 -3.560000000000000E-002   -8.070491206365019E-006
 -3.550000000000000E-002   -1.110948142524318E-005
 -3.540000000000000E-002   -1.440963208779109E-005
 -3.530000000000000E-002   -1.797264963625981E-005
 -3.520000000000000E-002   -2.179588672721189E-005
 -3.510000000000000E-002   -2.587335731062869E-005
 -3.500000000000000E-002   -3.019758557796096E-005
 -3.490000000000000E-002   -3.476207613123985E-005
 -3.480000000000000E-002   -3.956412902610064E-005
 -3.470000000000000E-002   -4.460758987168282E-005
 -3.460000000000000E-002   -4.990516058480153E-005
 -3.450000000000000E-002   -5.547993147331613E-005
 -3.440000000000000E-002   -6.136581897431869E-005
 -3.430000000000000E-002   -6.760681132356713E-005
 -3.420000000000000E-002   -7.425504585754623E-005
 -3.410000000000000E-002   -8.136786903167104E-005
 -3.400000000000000E-002   -8.900425864913952E-005
 -3.390000000000000E-002   -9.722101776611174E-005
 -3.380000000000000E-002   -1.060692724510035E-004
 -3.370000000000000E-002   -1.155916518871158E-004
 -3.360000000000000E-002   -1.258206774788492E-004
 -3.350000000000000E-002   -1.367785558710008E-004
 -3.340000000000000E-002   -1.484783985016407E-004
 -3.330000000000000E-002   -1.609268868609025E-004
 -3.320000000000000E-002   -1.741280176596188E-004
 -3.310000000000000E-002   -1.880874714109743E-004
 -3.300000000000000E-002   -2.028171070356397E-004
 -3.290000000000000E-002   -2.183390722906586E-004
 -3.280000000000000E-002   -2.346889031186942E-004
 -3.270000000000000E-002   -2.519172940912199E-004
 -3.260000000000000E-002   -2.700904274802042E-004
 -3.250000000000000E-002   -2.892885405411738E-004
 -3.240000000000000E-002   -3.096032776154553E-004
 -3.230000000000000E-002   -3.311340126912147E-004
 -3.220000000000000E-002   -3.539836236453656E-004
 -3.210000000000000E-002   -3.782544067400463E-004
 -3.200000000000000E-002   -4.040445800026093E-004
 -3.190000000000000E-002   -4.314460225198605E-004
 -3.180000000000000E-002   -4.605434669743858E-004
 -3.170000000000000E-002   -4.914151541193318E-004
 -3.160000000000000E-002   -5.241353639196051E-004
 -3.150000000000000E-002   -5.587779864639732E-004
 -3.140000000000000E-002   -5.954208392740385E-004
 -3.130000000000000E-002   -6.341505594365692E-004
 -3.120000000000000E-002   -6.750669183481566E-004
 -3.110000000000000E-002   -7.182864752685199E-004
 -3.100000000000000E-002   -7.639446565680111E-004
 -3.090000000000000E-002   -8.121964558370170E-004
 -3.080000000000000E-002   -8.632155385440200E-004
 -3.070000000000000E-002   -9.171916191285387E-004
 -3.060000000000000E-002   -9.743269929663789E-004
 -3.050000000000000E-002   -1.034832040245159E-003
 -3.040000000000000E-002   -1.098920921534375E-003
 -3.030000000000000E-002   -1.166807754901388E-003
 -3.020000000000000E-002   -1.238703693680410E-003
 -3.010000000000000E-002   -1.314815617709711E-003
 -3.000000000000000E-002   -1.395345846609934E-003
 -2.990000000000000E-002   -1.480494482247132E-003
 -2.980000000000000E-002   -1.570461988255258E-003
 -2.970000000000000E-002   -1.665454220853526E-003
 -2.960000000000000E-002   -1.765686605401517E-003
 -2.950000000000000E-002   -1.871389716411370E-003
 -2.940000000000000E-002   -1.982813594808503E-003
 -2.930000000000000E-002   -2.100230926148062E-003
 -2.920000000000000E-002   -2.223940213263038E-003
 -2.910000000000000E-002   -2.354266509601914E-003
 -2.900000000000000E-002   -2.491560665327761E-003
 -2.890000000000000E-002   -2.636198185264753E-003
 -2.880000000000000E-002   -2.788576408024135E-003
 -2.870000000000000E-002   -2.949111938161328E-003
 -2.860000000000000E-002   -3.118237250520798E-003
 -2.850000000000000E-002   -3.296398311409457E-003
 -2.840000000000000E-002   -3.484052731271170E-003
 -2.830000000000000E-002   -3.681668500153269E-003
 -2.820000000000000E-002   -3.889724666688551E-003
 -2.810000000000000E-002   -4.108711755555994E-003
 -2.800000000000000E-002   -4.339134987701968E-003
 -2.790000000000000E-002   -4.581516714472797E-003
 -2.780000000000000E-002   -4.836399236231840E-003
 -2.770000000000000E-002   -5.104348472819636E-003
 -2.760000000000000E-002   -5.385957258922283E-003
 -2.750000000000000E-002   -5.681847586933672E-003
 -2.740000000000000E-002   -5.992672082887088E-003
 -2.730000000000000E-002   -6.319116719869258E-003
 -2.720000000000000E-002   -6.661900291479732E-003
 -2.710000000000000E-002   -7.021773998286302E-003
 -2.700000000000000E-002   -7.399521559367917E-003
 -2.690000000000000E-002   -7.795957903180580E-003
 -2.680000000000000E-002   -8.211928923757028E-003
 -2.670000000000000E-002   -8.648309504940055E-003
 -2.660000000000000E-002   -9.106003845644792E-003
 -2.650000000000000E-002   -9.585945450453430E-003
 -2.640000000000000E-002   -1.008909652588655E-002
 -2.630000000000000E-002   -1.061644971568943E-002
 -2.620000000000000E-002   -1.116902873492053E-002
 -2.610000000000000E-002   -1.174788956151343E-002
 -2.600000000000000E-002   -1.235412464874148E-002
 -2.590000000000000E-002   -1.298886192004989E-002
 -2.580000000000000E-002   -1.365327119650593E-002
 -2.570000000000000E-002   -1.434856333876502E-002
 -2.560000000000000E-002   -1.507599444836192E-002
 -2.550000000000000E-002   -1.583686878552448E-002
 -2.540000000000000E-002   -1.663254178044479E-002
 -2.530000000000000E-002   -1.746441878675991E-002
 -2.520000000000000E-002   -1.833395780989153E-002
 -2.510000000000000E-002   -1.924267198468392E-002
 -2.500000000000000E-002   -2.019213094158127E-002
 -2.490000000000000E-002   -2.118395566658698E-002
 -2.480000000000000E-002   -2.221982226875645E-002
 -2.470000000000000E-002   -2.330145950594822E-002
 -2.460000000000000E-002   -2.443064676183264E-002
 -2.450000000000000E-002   -2.560921450944142E-002
 -2.440000000000000E-002   -2.683904285414015E-002
 -2.430000000000000E-002   -2.812206128789415E-002
 -2.420000000000000E-002   -2.946024636683397E-002
 -2.410000000000000E-002   -3.085562632302182E-002
 -2.400000000000000E-002   -3.231028265071276E-002
 -2.390000000000000E-002   -3.382635315164715E-002
 -2.380000000000000E-002   -3.540603086176403E-002
 -2.370000000000000E-002   -3.705156932190079E-002
 -2.360000000000000E-002   -3.876529593958896E-002
 -2.350000000000000E-002   -4.054960295361723E-002
 -2.340000000000000E-002   -4.240696051249558E-002
 -2.330000000000000E-002   -4.433990959165345E-002
 -2.320000000000000E-002   -4.635106623276730E-002
 -2.310000000000000E-002   -4.844312841957398E-002
 -2.300000000000000E-002   -5.061886733698983E-002
 -2.290000000000000E-002   -5.288113007243868E-002
 -2.280000000000000E-002   -5.523282732981304E-002
 -2.270000000000000E-002   -5.767694195348366E-002
 -2.260000000000000E-002   -6.021651972543817E-002
 -2.250000000000000E-002   -6.285466293036662E-002
 -2.240000000000000E-002   -6.559454586405881E-002
 -2.230000000000000E-002   -6.843939276481562E-002
 -2.220000000000000E-002   -7.139249532015936E-002
 -2.210000000000000E-002   -7.445720354799401E-002
 -2.200000000000000E-002   -7.763693562176527E-002
 -2.190000000000000E-002   -8.093518754713988E-002
 -2.180000000000000E-002   -8.435552018762836E-002
 -2.170000000000000E-002   -8.790158130510510E-002
 -2.160000000000000E-002   -9.157708885057878E-002
 -2.150000000000000E-002   -9.538585384391678E-002
 -2.140000000000000E-002   -9.933176570751781E-002
 -2.130000000000000E-002   -0.103418791471694     
 -2.120000000000000E-002   -0.107650985878502     
 -2.110000000000000E-002   -0.112032468928393     
 -2.100000000000000E-002   -0.116567431317476     
 -2.090000000000000E-002   -0.121260115472173     
 -2.080000000000000E-002   -0.126114831494353     
 -2.070000000000000E-002   -0.131135932290322     
 -2.060000000000000E-002   -0.136327819507737     
 -2.050000000000000E-002   -0.141694958715668     
 -2.040000000000000E-002   -0.147241829997990     
 -2.030000000000000E-002   -0.152972978772543     
 -2.020000000000000E-002   -0.158892990728677     
 -2.010000000000000E-002   -0.165006497664693     
 -2.000000000000000E-002   -0.171318184499247     
 -1.990000000000000E-002   -0.177832783187371     
 -1.980000000000000E-002   -0.184555096250656     
 -1.970000000000000E-002   -0.191489966238541     
 -1.960000000000000E-002   -0.198642281063368     
 -1.950000000000000E-002   -0.206016982476327     
 -1.940000000000000E-002   -0.213619062715744     
 -1.930000000000000E-002   -0.221453530414325     
 -1.920000000000000E-002   -0.229525430899715     
 -1.910000000000000E-002   -0.237839817846295     
 -1.900000000000000E-002   -0.246401758801533     
 -1.890000000000000E-002   -0.255216307370824     
 -1.880000000000000E-002   -0.264288501757979     
 -1.870000000000000E-002   -0.273623393196387     
 -1.860000000000000E-002   -0.283226019727742     
 -1.850000000000000E-002   -0.293101353733379     
 -1.840000000000000E-002   -0.303254399503877     
 -1.830000000000000E-002   -0.313690073782464     
 -1.820000000000000E-002   -0.324413314440173     
 -1.810000000000000E-002   -0.335428995413443     
 -1.800000000000000E-002   -0.346741999177335     
 -1.790000000000000E-002   -0.358357116139445     
 -1.780000000000000E-002   -0.370279150457975     
 -1.770000000000000E-002   -0.382512786851803     
 -1.760000000000000E-002   -0.395062719614901     
 -1.750000000000000E-002   -0.407933515054027     
 -1.740000000000000E-002   -0.421129674684875     
 -1.730000000000000E-002   -0.434655608224514     
 -1.720000000000000E-002   -0.448515634893027     
 -1.710000000000000E-002   -0.462713951816813     
 -1.700000000000000E-002   -0.477254584404979     
 -1.690000000000000E-002   -0.492141500827830     
 -1.680000000000000E-002   -0.507378467063920     
 -1.670000000000000E-002   -0.522969070329272     
 -1.660000000000000E-002   -0.538916774408356     
 -1.650000000000000E-002   -0.555224873574384     
 -1.640000000000000E-002   -0.571896488461937     
 -1.630000000000000E-002   -0.588934560036604     
 -1.620000000000000E-002   -0.606341761286553     
 -1.610000000000000E-002   -0.624120698396965     
 -1.600000000000000E-002   -0.642273631294633     
 -1.590000000000000E-002   -0.660802711770314     
 -1.580000000000000E-002   -0.679709819935019     
 -1.570000000000000E-002   -0.698996604139121     
 -1.560000000000000E-002   -0.718664412614252     
 -1.550000000000000E-002   -0.738714380404878     
 -1.540000000000000E-002   -0.759147314704643     
 -1.530000000000000E-002   -0.779963821971522     
 -1.520000000000000E-002   -0.801164090626880     
 -1.510000000000000E-002   -0.822748041057537     
 -1.500000000000000E-002   -0.844715310327282     
 -1.490000000000000E-002   -0.867065074664985     
 -1.480000000000000E-002   -0.889796269727655     
 -1.470000000000000E-002   -0.912907390115235     
 -1.460000000000000E-002   -0.936396560903279     
 -1.450000000000000E-002   -0.960261539905764     
 -1.440000000000000E-002   -0.984499623519428     
 -1.430000000000000E-002    -1.00910785110106     
 -1.420000000000000E-002    -1.03408278569408     
 -1.410000000000000E-002    -1.05942051645595     
 -1.400000000000000E-002    -1.08511670959090     
 -1.390000000000000E-002    -1.11116664631062     
 -1.380000000000000E-002    -1.13756520477519     
 -1.370000000000000E-002    -1.16430662840041     
 -1.360000000000000E-002    -1.19138484376152     
 -1.350000000000000E-002    -1.21879329439313     
 -1.340000000000000E-002    -1.24652478753459     
 -1.330000000000000E-002    -1.27457184268627     
 -1.320000000000000E-002    -1.30292623506824     
 -1.310000000000000E-002    -1.33157925579511     
 -1.300000000000000E-002    -1.36052181906237     
 -1.290000000000000E-002    -1.38974418790595     
 -1.280000000000000E-002    -1.41923595435936     
 -1.270000000000000E-002    -1.44898635810857     
 -1.260000000000000E-002    -1.47898395775370     
 -1.250000000000000E-002    -1.50921669732832     
 -1.240000000000000E-002    -1.53967207374250     
 -1.230000000000000E-002    -1.57033698908082     
 -1.220000000000000E-002    -1.60119771322709     
 -1.210000000000000E-002    -1.63223998469326     
 -1.200000000000000E-002    -1.66344898407198     
 -1.190000000000000E-002    -1.69480923205919     
 -1.180000000000000E-002    -1.72630468918185     
 -1.170000000000000E-002    -1.75791874721068     
 -1.160000000000000E-002    -1.78963424177493     
 -1.150000000000000E-002    -1.82143332629146     
 -1.140000000000000E-002    -1.85329762073650     
 -1.130000000000000E-002    -1.88520821314004     
 -1.120000000000000E-002    -1.91714539528483     
 -1.110000000000000E-002    -1.94908919398820     
 -1.100000000000000E-002    -1.98101852524880     
 -1.090000000000000E-002    -2.01291220940195     
 -1.080000000000000E-002    -2.04474830079973     
 -1.070000000000000E-002    -2.07650433177140     
 -1.060000000000000E-002    -2.10815700779116     
 -1.050000000000000E-002    -2.13968283067470     
 -1.040000000000000E-002    -2.17105747931139     
 -1.030000000000000E-002    -2.20225615424884     
 -1.020000000000000E-002    -2.23325389481135     
 -1.010000000000000E-002    -2.26402487023890     
 -1.000000000000000E-002    -2.29454264920330     
 -9.899999999999999E-003    -2.32478072008432     
 -9.800000000000000E-003    -2.35471176000468     
 -9.699999999999999E-003    -2.38430828638725     
 -9.599999999999999E-003    -2.41354215454636     
 -9.500000000000000E-003    -2.44238471078733     
 -9.399999999999999E-003    -2.47080712450124     
 -9.299999999999999E-003    -2.49877999263608     
 -9.200000000000000E-003    -2.52627370197494     
 -9.099999999999999E-003    -2.55325812235511     
 -8.999999999999999E-003    -2.57970264338175     
 -8.900000000000000E-003    -2.60557662648185     
 -8.799999999999999E-003    -2.63084900239877     
 -8.699999999999999E-003    -2.65548835441498     
 -8.600000000000000E-003    -2.67946332288804     
 -8.499999999999999E-003    -2.70274223175310     
 -8.399999999999999E-003    -2.72529292792470     
 -8.300000000000000E-003    -2.74708348061053     
 -8.199999999999999E-003    -2.76808162982441     
 -8.100000000000000E-003    -2.78825499247314     
 -8.000000000000000E-003    -2.80757157831877     
 -7.899999999999999E-003    -2.82599884745889     
 -7.800000000000000E-003    -2.84350421034345     
 -7.699999999999999E-003    -2.86005562147046     
 -7.599999999999999E-003    -2.87562066286692     
 -7.499999999999999E-003    -2.89016690623443     
 -7.399999999999999E-003    -2.90366243788077     
 -7.299999999999999E-003    -2.91607541763665     
 -7.199999999999999E-003    -2.92737380696900     
 -7.100000000000000E-003    -2.93752618310297     
 -6.999999999999999E-003    -2.94650133839687     
 -6.899999999999999E-003    -2.95426835731493     
 -6.800000000000000E-003    -2.96079659855585     
 -6.699999999999999E-003    -2.96605570992300     
 -6.599999999999999E-003    -2.97001606779490     
 -6.499999999999999E-003    -2.97264816369122     
 -6.399999999999999E-003    -2.97392311618626     
 -6.299999999999999E-003    -2.97381276330701     
 -6.199999999999999E-003    -2.97228936791712     
 -6.100000000000000E-003    -2.96932580688308     
 -5.999999999999999E-003    -2.96489577223455     
 -5.899999999999999E-003    -2.95897317552703     
 -5.800000000000000E-003    -2.95153319725580     
 -5.699999999999999E-003    -2.94255161275691     
 -5.599999999999999E-003    -2.93200463725395     
 -5.499999999999999E-003    -2.91986986732508     
 -5.399999999999999E-003    -2.90612552813908     
 -5.299999999999999E-003    -2.89075060623961     
 -5.199999999999999E-003    -2.87372533554589     
 -5.099999999999999E-003    -2.85503093982840     
 -4.999999999999999E-003    -2.83464921036116     
 -4.899999999999999E-003    -2.81256366208659     
 -4.799999999999999E-003    -2.78875834180274     
 -4.699999999999999E-003    -2.76321894620937     
 -4.599999999999999E-003    -2.73593187737662     
 -4.499999999999999E-003    -2.70688489461715     
 -4.399999999999999E-003    -2.67606732345492     
 -4.299999999999999E-003    -2.64346921031362     
 -4.199999999999999E-003    -2.60908236055186     
 -4.099999999999999E-003    -2.57289953796218     
 -3.999999999999999E-003    -2.53491514496656     
 -3.899999999999999E-003    -2.49512468336120     
 -3.799999999999999E-003    -2.45352523878248     
 -3.699999999999999E-003    -2.41011560684331     
 -3.599999999999999E-003    -2.36489539967437     
 -3.499999999999999E-003    -2.31786609615066     
 -3.399999999999999E-003    -2.26903054047552     
 -3.299999999999999E-003    -2.21839330714685     
 -3.199999999999999E-003    -2.16596029947372     
 -3.099999999999999E-003    -2.11173911876644     
 -2.999999999999999E-003    -2.05573849590913     
 -2.899999999999999E-003    -1.99796942426777     
 -2.799999999999999E-003    -1.93844385913071     
 -2.699999999999999E-003    -1.87717557479823     
 -2.599999999999999E-003    -1.81417997198775     
 -2.499999999999999E-003    -1.74947402793585     
 -2.399999999999999E-003    -1.68307642262066     
 -2.299999999999999E-003    -1.61500728257080     
 -2.199999999999999E-003    -1.54528843111511     
 -2.099999999999999E-003    -1.47394334364632     
 -1.999999999999999E-003    -1.40099707564478     
 -1.899999999999999E-003    -1.32647624070216     
 -1.799999999999999E-003    -1.25040910984715     
 -1.699999999999999E-003    -1.17282556315778     
 -1.599999999999999E-003    -1.09375708159315     
 -1.499999999999999E-003    -1.01323649041340     
 -1.399999999999999E-003   -0.931298374792253     
 -1.299999999999999E-003   -0.847978759264285     
 -1.199999999999999E-003   -0.763315144655511     
 -1.099999999999999E-003   -0.677346532430207     
 -9.999999999999989E-004   -0.590113395265324     
 -8.999999999999990E-004   -0.501657672506955     
 -7.999999999999990E-004   -0.412022677415860     
 -6.999999999999989E-004   -0.321253110962643     
 -5.999999999999990E-004   -0.229395016193456     
 -4.999999999999989E-004   -0.136495798460235     
 -3.999999999999989E-004   -4.260414683517783E-002
 -2.999999999999989E-004    5.222997283514326E-002
 -1.999999999999989E-004    0.147955409897403     
 -9.999999999999892E-005    0.244519782963280     
  1.084202172485504E-018    0.341869625276745     
  1.000000000000011E-004    0.439950326416472     
  2.000000000000011E-004    0.538706319104543     
  3.000000000000011E-004    0.638080949215362     
  4.000000000000011E-004    0.738016711474526     
  5.000000000000011E-004    0.838455074891359     
  6.000000000000011E-004    0.939336826391021     
  7.000000000000011E-004     1.04060183018011     
  8.000000000000011E-004     1.14218919747049     
  9.000000000000012E-004     1.24403751548802     
  1.000000000000001E-003     1.34608451497068     
  1.100000000000001E-003     1.44826755900750     
  1.200000000000001E-003     1.55052334469751     
  1.300000000000001E-003     1.65278805214793     
  1.400000000000001E-003     1.75499762018627     
  1.500000000000001E-003     1.85708743090495     
  1.600000000000001E-003     1.95899280405879     
  1.700000000000001E-003     2.06064858020674     
  1.800000000000001E-003     2.16198961757166     
  1.900000000000001E-003     2.26295047955519     
  2.000000000000001E-003     2.36346596462882     
  2.100000000000001E-003     2.46347047216936     
  2.200000000000001E-003     2.56289893155715     
  2.300000000000001E-003     2.66168630556056     
  2.400000000000001E-003     2.75976768831216     
  2.500000000000001E-003     2.85707860425549     
  2.600000000000001E-003     2.95355485053060     
  2.700000000000001E-003     3.04913248950111     
  2.800000000000001E-003     3.14374831932601     
  2.900000000000001E-003     3.23733950052076     
  3.000000000000001E-003     3.32984386558986     
  3.100000000000001E-003     3.42119969640899     
  3.200000000000001E-003     3.51134643436371     
  3.300000000000001E-003     3.60022380193902     
  3.400000000000001E-003     3.68777252031414     
  3.500000000000001E-003     3.77393429291221     
  3.600000000000001E-003     3.85865195425372     
  3.700000000000001E-003     3.94186881718368     
  3.800000000000001E-003     4.02352944261592     
  3.900000000000001E-003     4.10357989988367     
  4.000000000000001E-003     4.18196730610918     
  4.100000000000001E-003     4.25863951855077     
  4.200000000000001E-003     4.33354625590251     
  4.300000000000001E-003     4.40663816104720     
  4.400000000000001E-003     4.47786796792181     
  4.500000000000001E-003     4.54718903105764     
  4.600000000000002E-003     4.61455633169118     
  4.700000000000001E-003     4.67992638281017     
  4.800000000000001E-003     4.74325792394711     
  4.900000000000002E-003     4.80451047396837     
  5.000000000000001E-003     4.86364510851688     
  5.100000000000001E-003     4.92062552930476     
  5.200000000000001E-003     4.97541597516875     
  5.300000000000002E-003     5.02798321655198     
  5.400000000000001E-003     5.07829518274904     
  5.500000000000001E-003     5.12632241388879     
  5.600000000000002E-003     5.17203650914336     
  5.700000000000001E-003     5.21541112564173     
  5.800000000000001E-003     5.25642146740451     
  5.900000000000002E-003     5.29504552953915     
  6.000000000000001E-003     5.33126215679578     
  6.100000000000001E-003     5.36505302486637     
  6.200000000000002E-003     5.39640117635759     
  6.300000000000002E-003     5.42529162282895     
  6.400000000000001E-003     5.45171140590729     
  6.500000000000001E-003     5.47564981534769     
  6.600000000000002E-003     5.49709765596880     
  6.700000000000001E-003     5.51604781696876     
  6.800000000000001E-003     5.53249538923372     
  6.900000000000002E-003     5.54643704599051     
  7.000000000000001E-003     5.55787165084457     
  7.100000000000001E-003     5.56679960302733     
  7.200000000000002E-003     5.57322417803469     
  7.300000000000002E-003     5.57714935977100     
  7.400000000000001E-003     5.57858151953079     
  7.500000000000001E-003     5.57752958904033     
  7.600000000000002E-003     5.57400322923791     
  7.700000000000001E-003     5.56801459353441     
  7.800000000000001E-003     5.55957778450223     
  7.900000000000001E-003     5.54870863479092     
  8.000000000000002E-003     5.53542453259776     
  8.100000000000001E-003     5.51974439690649     
  8.200000000000001E-003     5.50168972967255     
  8.300000000000002E-003     5.48128291326116     
  8.400000000000001E-003     5.45854831105406     
  8.500000000000002E-003     5.43351241570209     
  8.600000000000002E-003     5.40620227799368     
  8.700000000000001E-003     5.37664715203437     
  8.800000000000002E-003     5.34487759467652     
  8.900000000000002E-003     5.31092569163622     
  9.000000000000001E-003     5.27482522168553     
  9.100000000000002E-003     5.23661140045625     
  9.200000000000002E-003     5.19632011062118     
  9.300000000000001E-003     5.15398930908034     
  9.400000000000002E-003     5.10965762578997     
  9.500000000000001E-003     5.06336486294622     
  9.600000000000001E-003     5.01515276536239     
  9.700000000000002E-003     4.96506326451626     
  9.800000000000001E-003     4.91314027270125     
  9.900000000000001E-003     4.85942774652392     
  1.000000000000000E-002     4.80397141776999     
  1.010000000000000E-002     4.74681762459796     
  1.020000000000000E-002     4.68801371178004     
  1.030000000000000E-002     4.62760779193819     
  1.040000000000000E-002     4.56564822981017     
  1.050000000000000E-002     4.50218507343485     
  1.060000000000000E-002     4.43726803484609     
  1.070000000000000E-002     4.37094811088254     
  1.080000000000000E-002     4.30327639919744     
  1.090000000000000E-002     4.23430491626249     
  1.100000000000000E-002     4.16408604486480     
  1.110000000000000E-002     4.09267253597295     
  1.120000000000000E-002     4.02011686722851     
  1.130000000000000E-002     3.94647251289933     
  1.140000000000000E-002     3.87179308298700     
  1.150000000000000E-002     3.79613224681079     
  1.160000000000000E-002     3.71954359577226     
  1.170000000000000E-002     3.64208111357209     
  1.180000000000000E-002     3.56379875344984     
  1.190000000000000E-002     3.48475047882280     
  1.200000000000000E-002     3.40499008073377     
  1.210000000000000E-002     3.32457122386409     
  1.220000000000000E-002     3.24354754756169     
  1.230000000000000E-002     3.16197244664874     
  1.240000000000000E-002     3.07989903220172     
  1.250000000000000E-002     2.99738006795780     
  1.260000000000000E-002     2.91446836862018     
  1.270000000000000E-002     2.83121581220152     
  1.280000000000000E-002     2.74767390746094     
  1.290000000000000E-002     2.66389404568344     
  1.300000000000000E-002     2.57992687421378     
  1.310000000000000E-002     2.49582261497845     
  1.320000000000000E-002     2.41163090549353     
  1.330000000000000E-002     2.32740052254043     
  1.340000000000000E-002     2.24317967258734     
  1.350000000000000E-002     2.15901613843238     
  1.360000000000000E-002     2.07495675129310     
  1.370000000000000E-002     1.99104771072133     
  1.380000000000000E-002     1.90733440563921     
  1.390000000000000E-002     1.82386151445217     
  1.400000000000000E-002     1.74067278042424     
  1.410000000000000E-002     1.65781118528916     
  1.420000000000000E-002     1.57531874808016     
  1.430000000000000E-002     1.49323672330066     
  1.440000000000000E-002     1.41160540858525     
  1.450000000000000E-002     1.33046396450522     
  1.460000000000000E-002     1.24985087839468     
  1.470000000000000E-002     1.16980347143589     
  1.480000000000000E-002     1.09035819576121     
  1.490000000000000E-002     1.01155035319998     
  1.500000000000000E-002    0.933414314064688     
  1.510000000000000E-002    0.855983344405809     
  1.520000000000000E-002    0.779289747880822     
  1.530000000000000E-002    0.703364696435167     
  1.540000000000000E-002    0.628238379732588     
  1.550000000000000E-002    0.553939889430622     
  1.560000000000000E-002    0.480497252135680     
  1.570000000000000E-002    0.407937412628051     
  1.580000000000000E-002    0.336286308286662     
  1.590000000000000E-002    0.265568758061385     
  1.600000000000000E-002    0.195808508967164     
  1.610000000000000E-002    0.127028232480382     
  1.620000000000000E-002    5.924954410385816E-002
  1.630000000000000E-002   -7.507037320665951E-003
  1.640000000000000E-002   -7.322203676465651E-002
  1.650000000000000E-002   -0.137877071469291     
  1.660000000000000E-002   -0.201454836871100     
  1.670000000000000E-002   -0.263939045211235     
  1.680000000000000E-002   -0.325314501032012     
  1.690000000000000E-002   -0.385567037864350     
  1.700000000000000E-002   -0.444683534778832     
  1.710000000000000E-002   -0.502651888074589     
  1.720000000000000E-002   -0.559460989502997     
  1.730000000000000E-002   -0.615100759848873     
  1.740000000000000E-002   -0.669562095323402     
  1.750000000000000E-002   -0.722836882117338     
  1.760000000000000E-002   -0.774917926516714     
  1.770000000000000E-002   -0.825798947684563     
  1.780000000000000E-002   -0.875474620381440     
  1.790000000000000E-002   -0.923940511383301     
  1.800000000000000E-002   -0.971193109871819     
  1.810000000000000E-002    -1.01722971588696     
  1.820000000000000E-002    -1.06204849329200     
  1.830000000000000E-002    -1.10564847733067     
  1.840000000000000E-002    -1.14802958016645     
  1.850000000000000E-002    -1.18919245490654     
  1.860000000000000E-002    -1.22913859299091     
  1.870000000000000E-002    -1.26787037555579     