 -4.000000000000000E-002    0.000000000000000E+000
 -3.990000000000000E-002    0.000000000000000E+000
 -3.980000000000000E-002    0.000000000000000E+000
 -3.970000000000000E-002    0.000000000000000E+000
 -3.960000000000000E-002    0.000000000000000E+000
 -3.950000000000000E-002    0.000000000000000E+000
 -3.940000000000000E-002    0.000000000000000E+000
 -3.930000000000000E-002    0.000000000000000E+000
 -3.920000000000000E-002    0.000000000000000E+000
 -3.910000000000000E-002    0.000000000000000E+000
 -3.900000000000000E-002    0.000000000000000E+000
 -3.890000000000000E-002    0.000000000000000E+000
 -3.880000000000000E-002    0.000000000000000E+000
 -3.870000000000000E-002    0.000000000000000E+000
 -3.860000000000000E-002    0.000000000000000E+000
 -3.850000000000000E-002    0.000000000000000E+000
 -3.840000000000000E-002    0.000000000000000E+000
 -3.830000000000000E-002    0.000000000000000E+000
 -3.820000000000000E-002    0.000000000000000E+000
 -3.810000000000000E-002    0.000000000000000E+000
 -3.800000000000000E-002    0.000000000000000E+000
 -3.790000000000000E-002    0.000000000000000E+000
 -3.780000000000000E-002    0.000000000000000E+000
 -3.770000000000000E-002    0.000000000000000E+000
 -3.760000000000000E-002    0.000000000000000E+000
 -3.750000000000000E-002    0.000000000000000E+000
 -3.740000000000000E-002    0.000000000000000E+000
 -3.730000000000000E-002    0.000000000000000E+000
 -3.720000000000000E-002    0.000000000000000E+000
 -3.710000000000000E-002    0.000000000000000E+000
 -3.700000000000000E-002    0.000000000000000E+000
 -3.690000000000000E-002    0.000000000000000E+000
 -3.680000000000000E-002    0.000000000000000E+000
 -3.670000000000000E-002    0.000000000000000E+000
 -3.660000000000000E-002    0.000000000000000E+000
 -3.650000000000000E-002    0.000000000000000E+000
 -3.640000000000000E-002    0.000000000000000E+000
 -3.630000000000000E-002    0.000000000000000E+000
 -3.620000000000000E-002    0.000000000000000E+000
 -3.610000000000000E-002    0.000000000000000E+000
 -3.600000000000000E-002    0.000000000000000E+000
 -3.590000000000000E-002    0.000000000000000E+000
 -3.580000000000000E-002    0.000000000000000E+000
 -3.570000000000000E-002    0.000000000000000E+000
 -3.560000000000000E-002    0.000000000000000E+000
 -3.550000000000000E-002    0.000000000000000E+000
 -3.540000000000000E-002    0.000000000000000E+000
 -3.530000000000000E-002    0.000000000000000E+000
 -3.520000000000000E-002    0.000000000000000E+000
 -3.510000000000000E-002    0.000000000000000E+000
 -3.500000000000000E-002    0.000000000000000E+000
 -3.490000000000000E-002    0.000000000000000E+000
 -3.480000000000000E-002    0.000000000000000E+000
 -3.470000000000000E-002    0.000000000000000E+000
 -3.460000000000000E-002    0.000000000000000E+000
 -3.450000000000000E-002    0.000000000000000E+000
 -3.440000000000000E-002    0.000000000000000E+000
 -3.430000000000000E-002    0.000000000000000E+000
 -3.420000000000000E-002    0.000000000000000E+000
 -3.410000000000000E-002    0.000000000000000E+000
 -3.400000000000000E-002    0.000000000000000E+000
 -3.390000000000000E-002    0.000000000000000E+000
 -3.380000000000000E-002    0.000000000000000E+000
 -3.370000000000000E-002    0.000000000000000E+000
 -3.360000000000000E-002    0.000000000000000E+000
 -3.350000000000000E-002    0.000000000000000E+000
 -3.340000000000000E-002    0.000000000000000E+000
 -3.330000000000000E-002    0.000000000000000E+000
 -3.320000000000000E-002    0.000000000000000E+000
 -3.310000000000000E-002    0.000000000000000E+000
 -3.300000000000000E-002    0.000000000000000E+000
 -3.290000000000000E-002    0.000000000000000E+000
 -3.280000000000000E-002    0.000000000000000E+000
 -3.270000000000000E-002    0.000000000000000E+000
 -3.260000000000000E-002    0.000000000000000E+000
 -3.250000000000000E-002    0.000000000000000E+000
 -3.240000000000000E-002    0.000000000000000E+000
 -3.230000000000000E-002    0.000000000000000E+000
 -3.220000000000000E-002    0.000000000000000E+000
 -3.210000000000000E-002    0.000000000000000E+000
 -3.200000000000000E-002    0.000000000000000E+000
 -3.190000000000000E-002    0.000000000000000E+000
 -3.180000000000000E-002    0.000000000000000E+000
 -3.170000000000000E-002    0.000000000000000E+000
 -3.160000000000000E-002    0.000000000000000E+000
 -3.150000000000000E-002    0.000000000000000E+000
 -3.140000000000000E-002    0.000000000000000E+000
 -3.130000000000000E-002    0.000000000000000E+000
 -3.120000000000000E-002    0.000000000000000E+000
 -3.110000000000000E-002    0.000000000000000E+000
 -3.100000000000000E-002    0.000000000000000E+000
 -3.090000000000000E-002    0.000000000000000E+000
 -3.080000000000000E-002    0.000000000000000E+000
 -3.070000000000000E-002    0.000000000000000E+000
 -3.060000000000000E-002    0.000000000000000E+000
 -3.050000000000000E-002    0.000000000000000E+000
 -3.040000000000000E-002    0.000000000000000E+000
 -3.030000000000000E-002    0.000000000000000E+000
 -3.020000000000000E-002    0.000000000000000E+000
 -3.010000000000000E-002    0.000000000000000E+000
 -3.000000000000000E-002    0.000000000000000E+000
 -2.990000000000000E-002    0.000000000000000E+000
 -2.980000000000000E-002    0.000000000000000E+000
 -2.970000000000000E-002    0.000000000000000E+000
 -2.960000000000000E-002    0.000000000000000E+000
 -2.950000000000000E-002    0.000000000000000E+000
 -2.940000000000000E-002    0.000000000000000E+000
 -2.930000000000000E-002    0.000000000000000E+000
 -2.920000000000000E-002    0.000000000000000E+000
 -2.910000000000000E-002    0.000000000000000E+000
 -2.900000000000000E-002    0.000000000000000E+000
 -2.890000000000000E-002    0.000000000000000E+000
 -2.880000000000000E-002    0.000000000000000E+000
 -2.870000000000000E-002    0.000000000000000E+000
 -2.860000000000000E-002    0.000000000000000E+000
 -2.850000000000000E-002    0.000000000000000E+000
 -2.840000000000000E-002    0.000000000000000E+000
 -2.830000000000000E-002    0.000000000000000E+000
 -2.820000000000000E-002    0.000000000000000E+000
 -2.810000000000000E-002    0.000000000000000E+000
 -2.800000000000000E-002    0.000000000000000E+000
 -2.790000000000000E-002    0.000000000000000E+000
 -2.780000000000000E-002    0.000000000000000E+000
 -2.770000000000000E-002    0.000000000000000E+000
 -2.760000000000000E-002    0.000000000000000E+000
 -2.750000000000000E-002    0.000000000000000E+000
 -2.740000000000000E-002    0.000000000000000E+000
 -2.730000000000000E-002    0.000000000000000E+000
 -2.720000000000000E-002    0.000000000000000E+000
 -2.710000000000000E-002    0.000000000000000E+000
 -2.700000000000000E-002    0.000000000000000E+000
 -2.690000000000000E-002    0.000000000000000E+000
 -2.680000000000000E-002    0.000000000000000E+000
 -2.670000000000000E-002    0.000000000000000E+000
 -2.660000000000000E-002    0.000000000000000E+000
 -2.650000000000000E-002    0.000000000000000E+000
 -2.640000000000000E-002    0.000000000000000E+000
 -2.630000000000000E-002    0.000000000000000E+000
 -2.620000000000000E-002    0.000000000000000E+000
 -2.610000000000000E-002    0.000000000000000E+000
 -2.600000000000000E-002    0.000000000000000E+000
 -2.590000000000000E-002    0.000000000000000E+000
 -2.580000000000000E-002    0.000000000000000E+000
 -2.570000000000000E-002    0.000000000000000E+000
 -2.560000000000000E-002    0.000000000000000E+000
 -2.550000000000000E-002    0.000000000000000E+000
 -2.540000000000000E-002    0.000000000000000E+000
 -2.530000000000000E-002    0.000000000000000E+000
 -2.520000000000000E-002    0.000000000000000E+000
 -2.510000000000000E-002    0.000000000000000E+000
 -2.500000000000000E-002    0.000000000000000E+000
 -2.490000000000000E-002    0.000000000000000E+000
 -2.480000000000000E-002    0.000000000000000E+000
 -2.470000000000000E-002    0.000000000000000E+000
 -2.460000000000000E-002    0.000000000000000E+000
 -2.450000000000000E-002    0.000000000000000E+000
 -2.440000000000000E-002    0.000000000000000E+000
 -2.430000000000000E-002    0.000000000000000E+000
 -2.420000000000000E-002    0.000000000000000E+000
 -2.410000000000000E-002    0.000000000000000E+000
 -2.400000000000000E-002    0.000000000000000E+000
 -2.390000000000000E-002    0.000000000000000E+000
 -2.380000000000000E-002    0.000000000000000E+000
 -2.370000000000000E-002    0.000000000000000E+000
 -2.360000000000000E-002    0.000000000000000E+000
 -2.350000000000000E-002    0.000000000000000E+000
 -2.340000000000000E-002    0.000000000000000E+000
 -2.330000000000000E-002    0.000000000000000E+000
 -2.320000000000000E-002    0.000000000000000E+000
 -2.310000000000000E-002    0.000000000000000E+000
 -2.300000000000000E-002    0.000000000000000E+000
 -2.290000000000000E-002    0.000000000000000E+000
 -2.280000000000000E-002    0.000000000000000E+000
 -2.270000000000000E-002    0.000000000000000E+000
 -2.260000000000000E-002    0.000000000000000E+000
 -2.250000000000000E-002    0.000000000000000E+000
 -2.240000000000000E-002    0.000000000000000E+000
 -2.230000000000000E-002    0.000000000000000E+000
 -2.220000000000000E-002    0.000000000000000E+000
 -2.210000000000000E-002    0.000000000000000E+000
 -2.200000000000000E-002    0.000000000000000E+000
 -2.190000000000000E-002    0.000000000000000E+000
 -2.180000000000000E-002    0.000000000000000E+000
 -2.170000000000000E-002    0.000000000000000E+000
 -2.160000000000000E-002    0.000000000000000E+000
 -2.150000000000000E-002    0.000000000000000E+000
 -2.140000000000000E-002    0.000000000000000E+000
 -2.130000000000000E-002    0.000000000000000E+000
 -2.120000000000000E-002    0.000000000000000E+000
 -2.110000000000000E-002    0.000000000000000E+000
 -2.100000000000000E-002    0.000000000000000E+000
 -2.090000000000000E-002    0.000000000000000E+000
 -2.080000000000000E-002    0.000000000000000E+000
 -2.070000000000000E-002    0.000000000000000E+000
 -2.060000000000000E-002    0.000000000000000E+000
 -2.050000000000000E-002    0.000000000000000E+000
 -2.040000000000000E-002    0.000000000000000E+000
 -2.030000000000000E-002    0.000000000000000E+000
 -2.020000000000000E-002    0.000000000000000E+000
 -2.010000000000000E-002    0.000000000000000E+000
 -2.000000000000000E-002    0.000000000000000E+000
 -1.990000000000000E-002    0.000000000000000E+000
 -1.980000000000000E-002    0.000000000000000E+000
 -1.970000000000000E-002    0.000000000000000E+000
 -1.960000000000000E-002    0.000000000000000E+000
 -1.950000000000000E-002    0.000000000000000E+000
 -1.940000000000000E-002    2.217867166960549E-048
 -1.930000000000000E-002    4.435734333921099E-048
 -1.920000000000000E-002    4.435734333921099E-048
 -1.910000000000000E-002    4.435734333921099E-048
 -1.900000000000000E-002   -4.516402249613261E-048
 -1.890000000000000E-002   -1.568640600010817E-047
 -1.880000000000000E-002   -2.455787466795037E-047
 -1.870000000000000E-002   -3.564721050275311E-047
 -1.860000000000000E-002   -4.222014408794260E-047
 -1.850000000000000E-002   -3.061767311432400E-047
 -1.840000000000000E-002   -4.753264165799771E-048
 -1.830000000000000E-002    3.893475003410101E-047
 -1.820000000000000E-002    1.797432919920113E-046
 -1.810000000000000E-002    3.882036797102513E-046
 -1.800000000000000E-002    5.969712520247506E-046
 -1.790000000000000E-002    9.092239435658770E-046
 -1.780000000000000E-002    1.794536691219149E-045
 -1.770000000000000E-002    2.597515509255733E-045
 -1.760000000000000E-002    3.056278471084723E-045
 -1.750000000000000E-002    2.998438635179119E-045
 -1.740000000000000E-002    1.655744443754055E-045
 -1.730000000000000E-002   -2.756374490641760E-046
 -1.720000000000000E-002   -4.212217020179615E-045
 -1.710000000000000E-002   -8.908082017390396E-045
 -1.700000000000000E-002   -1.488910946483018E-044
 -1.690000000000000E-002   -2.019842856877247E-044
 -1.680000000000000E-002   -2.415386580076055E-044
 -1.670000000000000E-002   -2.637208776187037E-044
 -1.660000000000000E-002   -2.258492586707944E-044
 -1.650000000000000E-002   -1.238935419918791E-044
 -1.640000000000000E-002    7.896214253849574E-045
 -1.630000000000000E-002    3.850459522415799E-044
 -1.620000000000000E-002    8.008427263476064E-044
 -1.610000000000000E-002    1.281049606871213E-043
 -1.600000000000000E-002    1.780413808684384E-043
 -1.590000000000000E-002    2.185397532199195E-043
 -1.580000000000000E-002    2.364672830604310E-043
 -1.570000000000000E-002    2.129827718842232E-043
 -1.560000000000000E-002    1.317205065426989E-043
 -1.550000000000000E-002   -2.356357682275543E-044
 -1.540000000000000E-002   -2.635678234128135E-043
 -1.530000000000000E-002   -5.842222765445336E-043
 -1.520000000000000E-002   -9.679575969900154E-043
 -1.510000000000000E-002   -1.369340758429352E-042
 -1.500000000000000E-002   -1.717430468447821E-042
 -1.490000000000000E-002   -1.913216586390125E-042
 -1.480000000000000E-002   -1.832635074141665E-042
 -1.470000000000000E-002   -1.342328611565273E-042
 -1.460000000000000E-002   -3.144694022236440E-043
 -1.450000000000000E-002    1.342303019793118E-042
 -1.440000000000000E-002    3.644552484462758E-042
 -1.430000000000000E-002    6.490955535255178E-042
 -1.420000000000000E-002    9.624696852931564E-042
 -1.410000000000000E-002    1.259184437520270E-041
 -1.400000000000000E-002    1.473124641385447E-041
 -1.390000000000000E-002    1.518645947781771E-041
 -1.380000000000000E-002    1.296352346236617E-041
 -1.370000000000000E-002    7.051863539863326E-042
 -1.360000000000000E-002   -3.400812232463353E-042
 -1.350000000000000E-002   -1.883459624273789E-041
 -1.340000000000000E-002   -3.898028904979134E-041
 -1.330000000000000E-002   -6.252786272987317E-041
 -1.320000000000000E-002   -8.681914671276250E-041
 -1.310000000000000E-002   -1.076319675954407E-040
 -1.300000000000000E-002   -1.191472800907861E-040
 -1.290000000000000E-002   -1.142005064615227E-040
 -1.280000000000000E-002   -8.493395361685993E-041
 -1.270000000000000E-002   -2.392921004875668E-041
 -1.260000000000000E-002    7.413261526129539E-041
 -1.250000000000000E-002    2.103164131134329E-040
 -1.240000000000000E-002    3.789502368163917E-040
 -1.230000000000000E-002    5.651122722788513E-040
 -1.220000000000000E-002    7.425799384144200E-040
 -1.210000000000000E-002    8.728847617487324E-040
 -1.200000000000000E-002    9.062713615145904E-040
 -1.190000000000000E-002    7.853883351525297E-040
 -1.180000000000000E-002    4.524295501546916E-040
 -1.170000000000000E-002   -1.398497907992971E-040
 -1.160000000000000E-002   -1.013392631893956E-039
 -1.150000000000000E-002   -2.147357757269764E-039
 -1.140000000000000E-002   -3.459948255244589E-039
 -1.130000000000000E-002   -4.792820946840321E-039
 -1.120000000000000E-002   -5.902528539486399E-039
 -1.110000000000000E-002   -6.464320110049013E-039
 -1.100000000000000E-002   -6.093843514337342E-039
 -1.090000000000000E-002   -4.391547480202979E-039
 -1.080000000000000E-002   -1.012383089628081E-039
 -1.070000000000000E-002    4.240325288644506E-039
 -1.060000000000000E-002    1.130341291636421E-038
 -1.050000000000000E-002    1.973808705118268E-038
 -1.040000000000000E-002    2.863049805989456E-038
 -1.030000000000000E-002    3.653608209766466E-038
 -1.020000000000000E-002    4.149961879441171E-038
 -1.010000000000000E-002    4.118321637968998E-038
 -1.000000000000000E-002    3.312848584480549E-038
 -9.899999999999999E-003    1.516508879081243E-038
 -9.800000000000000E-003   -1.404497176102904E-038
 -9.699999999999999E-003   -5.436926919419055E-038
 -9.599999999999999E-003   -1.035524201934217E-037
 -9.500000000000000E-003   -1.566669873234835E-037
 -9.399999999999999E-003   -2.058186807421228E-037
 -9.299999999999999E-003   -2.402752055338704E-037
 -9.200000000000000E-003   -2.471816311704347E-037
 -9.099999999999999E-003   -2.129853302532631E-037
 -8.999999999999999E-003   -1.256120293681459E-037
 -8.900000000000000E-003    2.268838901291383E-038
 -8.799999999999999E-003    2.320678299445453E-037
 -8.699999999999999E-003    4.918006623872326E-037
 -8.600000000000000E-003    7.775993282510692E-037
 -8.499999999999999E-003    1.050261913873544E-036
 -8.399999999999999E-003    1.256445773707236E-036
 -8.300000000000000E-003    1.332294175923974E-036
 -8.199999999999999E-003    1.210413836921570E-036
 -8.100000000000000E-003    8.302922509113304E-037
 -8.000000000000000E-003    1.516594788409013E-037
 -7.899999999999999E-003   -8.304193503670617E-037
 -7.800000000000000E-003   -2.070717652421885E-036
 -7.699999999999999E-003   -3.461984929928105E-036
 -7.599999999999999E-003   -4.829255294158631E-036
 -7.499999999999999E-003   -5.933637709679395E-036
 -7.399999999999999E-003   -6.488473419277672E-036
 -7.299999999999999E-003   -6.189653958400360E-036
 -7.199999999999999E-003   -4.760105988385746E-036
 -7.100000000000000E-003   -2.006012897519492E-036
 -6.999999999999999E-003    2.120497275877622E-036
 -6.899999999999999E-003    7.460416615731506E-036
 -6.800000000000000E-003    1.359944722166104E-035
 -6.699999999999999E-003    1.984443804524870E-035
 -6.599999999999999E-003    2.523708510012370E-035
 -6.499999999999999E-003    2.861527051960923E-035
 -6.399999999999999E-003    2.872807138028512E-035
 -6.299999999999999E-003    2.440368111804938E-035
 -6.199999999999999E-003    1.476078422445482E-035
 -6.100000000000000E-003   -5.560996495443433E-037
 -5.999999999999999E-003   -2.114660780783944E-035
 -5.899999999999999E-003   -4.566748735557733E-035
 -5.800000000000000E-003   -7.173081613884217E-035
 -5.699999999999999E-003   -9.592940170109335E-035
 -5.599999999999999E-003   -1.140242529677582E-034
 -5.499999999999999E-003   -1.213146598685626E-034
 -5.399999999999999E-003   -1.131898696944103E-034
 -5.299999999999999E-003   -8.583427932874928E-035
 -5.199999999999999E-003   -3.702741024029995E-035
 -5.099999999999999E-003    3.305002546354003E-035
 -4.999999999999999E-003    1.211172633200516E-034
 -4.899999999999999E-003    2.203313875652400E-034
 -4.799999999999999E-003    3.201916315064007E-034
 -4.699999999999999E-003    4.069238872159703E-034
 -4.599999999999999E-003    4.644230337983945E-034
 -4.499999999999999E-003    4.757756217333576E-034
 -4.399999999999999E-003    4.253152439073657E-034
 -4.299999999999999E-003    3.010800197167637E-034
 -4.199999999999999E-003    9.746061825841614E-035
 -4.099999999999999E-003   -1.822507696331325E-034
 -3.999999999999999E-003   -5.237596090434385E-034
 -3.899999999999999E-003   -9.004932823722890E-034
 -3.799999999999999E-003   -1.273525354801400E-033
 -3.699999999999999E-003   -1.593022493488014E-033
 -3.599999999999999E-003   -1.801442627373475E-033
 -3.499999999999999E-003   -1.838568821325751E-033
 -3.399999999999999E-003   -1.648276051779075E-033
 -3.299999999999999E-003   -1.186706272079598E-033
 -3.199999999999999E-003   -4.312789487104943E-034
 -3.099999999999999E-003    6.102858536370080E-034
 -2.999999999999999E-003    1.891993491335705E-033
 -2.899999999999999E-003    3.323899654978746E-033
 -2.799999999999999E-003    4.770099910746154E-033
 -2.699999999999999E-003    6.051742225287947E-033
 -2.599999999999999E-003    6.956248908499899E-033
 -2.499999999999999E-003    7.253575715441693E-033
 -2.399999999999999E-003    6.719733087339126E-033
 -2.299999999999999E-003    5.166946936348195E-033
 -2.199999999999999E-003    2.478795182835172E-033
 -2.099999999999999E-003   -1.352589648170791E-033
 -1.999999999999999E-003   -6.191418116729911E-033
 -1.899999999999999E-003   -1.173057104552951E-032
 -1.799999999999999E-003   -1.747749398339124E-032
 -1.699999999999999E-003   -2.276002455265223E-032
 -1.599999999999999E-003   -2.675794492748477E-032
 -1.499999999999999E-003   -2.856433204060568E-032
 -1.399999999999999E-003   -2.727799431937885E-032
 -1.299999999999999E-003   -2.212425271095353E-032
 -1.199999999999999E-003   -1.259640533544029E-032
 -1.099999999999999E-003    1.395271134728767E-033
 -9.999999999999989E-004    1.938525471639189E-032
 -8.999999999999990E-004    4.024790582325387E-032
 -7.999999999999990E-004    6.215065619240377E-032
 -6.999999999999989E-004    8.258915987241403E-032
 -5.999999999999990E-004    9.852363970949126E-032
 -4.999999999999989E-004    1.066268812745162E-031
 -3.999999999999989E-004    1.036412441762772E-031
 -2.999999999999989E-004    8.682607176545041E-032
 -1.999999999999989E-004    5.445870223510197E-032
 -9.999999999999892E-005    6.334984140284881E-033
  1.084202172485504E-018   -5.579897291210426E-032
  1.000000000000011E-004   -1.279600818603009E-031
  2.000000000000011E-004   -2.038617716371409E-031
  3.000000000000011E-004   -2.751308965223061E-031
  4.000000000000011E-004   -3.318473699774810E-031
  5.000000000000011E-004   -3.634111198349843E-031
  6.000000000000011E-004   -3.596975258817114E-031
  7.000000000000011E-004   -3.124161203152127E-031
  8.000000000000011E-004   -2.165417653481061E-031
  9.000000000000012E-004   -7.165192221002795E-032
  1.000000000000001E-003    1.170158467952681E-031
  1.100000000000001E-003    3.379713632569483E-031
  1.200000000000001E-003    5.735026727932552E-031
  1.300000000000001E-003    8.004371639395630E-031
  1.400000000000001E-003    9.916669701455467E-031
  1.500000000000001E-003    1.118384780900810E-030
  1.600000000000001E-003    1.152884958748619E-030
  1.700000000000001E-003    1.071700492645395E-030
  1.800000000000001E-003    8.587849527452063E-031
  1.900000000000001E-003    5.084121085993863E-031
  2.000000000000001E-003    2.747578688408293E-032
  2.100000000000001E-003   -5.630916221038714E-031
  2.200000000000001E-003   -1.227984071915138E-030
  2.300000000000001E-003   -1.918380262675590E-030
  2.400000000000001E-003   -2.574002405000989E-030
  2.500000000000001E-003   -3.126292112822142E-030
  2.600000000000001E-003   -3.502555321040666E-030
  2.700000000000001E-003   -3.630894580004200E-030
  2.800000000000001E-003   -3.445749881554443E-030
  2.900000000000001E-003   -2.893897065153665E-030
  3.000000000000001E-003   -1.940772713523945E-030
  3.100000000000001E-003   -5.770039839740183E-031
  3.200000000000001E-003    1.175033952499131E-030
  3.300000000000001E-003    3.254933654692579E-030
  3.400000000000001E-003    5.558759580117895E-030
  3.500000000000001E-003    7.935137691486828E-030
  3.600000000000001E-003    1.018403848755320E-029
  3.700000000000001E-003    1.205964375563243E-029
  3.800000000000001E-003    1.327884172810123E-029
  3.900000000000001E-003    1.353683385010951E-029
  4.000000000000001E-003    1.253097177542063E-029
  4.100000000000001E-003    9.993185543362040E-030
  4.200000000000001E-003    5.730259536132659E-030
  4.300000000000001E-003   -3.302728662355643E-031
  4.400000000000001E-003   -8.092502171607986E-030
  4.500000000000001E-003   -1.724833701533202E-029
  4.600000000000002E-003   -2.724449252405409E-029
  4.700000000000001E-003   -3.726808245550747E-029
  4.800000000000001E-003   -4.625862367301499E-029
  4.900000000000002E-003   -5.295317534452315E-029
  5.000000000000001E-003   -5.596900175321538E-029
  5.100000000000001E-003   -5.392464380317075E-029
  5.200000000000001E-003   -4.559570596772732E-029
  5.300000000000002E-003   -3.009650625668888E-029
  5.400000000000001E-003   -7.073301328124804E-030
  5.500000000000001E-003    2.310997272154903E-029
  5.600000000000002E-003    5.921627759048351E-029
  5.700000000000001E-003    9.903509378800824E-029
  5.800000000000001E-003    1.393614017581920E-028
  5.900000000000002E-003    1.760753399866662E-028
  6.000000000000001E-003    2.043380912970988E-028
  6.100000000000001E-003    2.189112464936920E-028
  6.200000000000002E-003    2.145964358723207E-028
  6.300000000000002E-003    1.867800350631161E-028
  6.400000000000001E-003    1.320546083206982E-028
  6.500000000000001E-003    4.887590789575692E-029
  6.600000000000002E-003   -6.179789282259630E-029
  6.700000000000001E-003   -1.959493623174499E-028
  6.800000000000001E-003   -3.460997829086537E-028
  6.900000000000002E-003   -5.011393975452740E-028
  7.000000000000001E-003   -6.464672356932718E-028
  7.100000000000001E-003   -7.645119651802992E-028
  7.200000000000002E-003   -8.356900552748164E-028
  7.300000000000002E-003   -8.398346980974660E-028
  7.400000000000001E-003   -7.580915291495697E-028
  7.500000000000001E-003   -5.752299555337760E-028
  7.600000000000002E-003   -2.822592493277060E-028
  7.700000000000001E-003    1.208330623434509E-028
  7.800000000000001E-003    6.224764624657743E-028
  7.900000000000001E-003    1.197374116549709E-027
  8.000000000000002E-003    1.805207308971921E-027
  8.100000000000001E-003    2.390602842783155E-027
  8.200000000000001E-003    2.884767979257755E-027
  8.300000000000002E-003    3.209131061291426E-027
  8.400000000000001E-003    3.281188526770633E-027
  8.500000000000002E-003    3.022557445171610E-027
  8.600000000000002E-003    2.368958294823539E-027
  8.700000000000001E-003    1.281523212128585E-027
  8.800000000000002E-003   -2.415197482968088E-028
  8.900000000000002E-003   -2.154076130485404E-027
  9.000000000000001E-003   -4.353886772007662E-027
  9.100000000000002E-003   -6.678414009150111E-027
  9.200000000000002E-003   -8.906595657274823E-027
  9.300000000000001E-003   -1.076790432368186E-026
  9.400000000000002E-003   -1.195965434771296E-026
  9.500000000000001E-003   -1.217273237099951E-026
  9.600000000000001E-003   -1.112497610830147E-026
  9.700000000000002E-003   -8.600253061576713E-027
  9.800000000000001E-003   -4.490146532325410E-027
  9.900000000000001E-003    1.165990196771553E-027
  1.000000000000000E-002    8.147668637457665E-027
  1.010000000000000E-002    1.603214151814319E-026
  1.020000000000000E-002    2.419095134230888E-026
  1.030000000000000E-002    3.180882541522768E-026
  1.040000000000000E-002    3.792810506395721E-026
  1.050000000000000E-002    4.151970397175390E-026
  1.060000000000000E-002    4.157880690930416E-026
  1.070000000000000E-002    3.724031605992740E-026
  1.080000000000000E-002    2.790578246213352E-026
  1.090000000000000E-002    1.337042134939555E-026
  1.100000000000000E-002   -6.063580609916944E-027
  1.110000000000000E-002   -2.950273132229860E-026
  1.120000000000000E-002   -5.542230525048544E-026
  1.130000000000000E-002   -8.168461747153647E-026
  1.140000000000000E-002   -1.056260687104121E-025
  1.150000000000000E-002   -1.242185263570362E-025
  1.160000000000000E-002   -1.343039547447212E-025
  1.170000000000000E-002   -1.328934685436553E-025
  1.180000000000000E-002   -1.175135173396307E-025
  1.190000000000000E-002   -8.657391026916041E-026
  1.200000000000000E-002   -3.972443218420322E-026
  1.210000000000000E-002    2.183810028401366E-026
  1.220000000000000E-002    9.515384350589695E-026
  1.230000000000000E-002    1.754157384827477E-025
  1.240000000000000E-002    2.560533614941262E-025
  1.250000000000000E-002    3.290117853307817E-025
  1.260000000000000E-002    3.852390933879157E-025
  1.270000000000000E-002    4.153780924724162E-025
  1.280000000000000E-002    4.106376108697091E-025
  1.290000000000000E-002    3.637946042525371E-025
  1.300000000000000E-002    2.702561360923474E-025
  1.310000000000000E-002    1.290887277027195E-025
  1.320000000000000E-002   -5.609462236892436E-026
  1.330000000000000E-002   -2.765083843703505E-025
  1.340000000000000E-002   -5.179487468853289E-025
  1.350000000000000E-002   -7.610350466940202E-025
  1.360000000000000E-002   -9.820199981658685E-025
  1.370000000000000E-002   -1.154211521188072E-024
  1.380000000000000E-002   -1.249995753298163E-024
  1.390000000000000E-002   -1.243388807469681E-024
  1.400000000000000E-002   -1.112974843033272E-024
  1.410000000000000E-002   -8.450166388869650E-025
  1.420000000000000E-002   -4.364628837774057E-025
  1.430000000000000E-002    1.024739586447279E-025
  1.440000000000000E-002    7.465218903365036E-025
  1.450000000000000E-002    1.454682220545902E-024
  1.460000000000000E-002    2.170996506120574E-024
  1.470000000000000E-002    2.826970590538165E-024
  1.480000000000000E-002    3.345754913071370E-024
  1.490000000000000E-002    3.648021941230435E-024
  1.500000000000000E-002    3.659296559333649E-024
  1.510000000000000E-002    3.318297585171551E-024
  1.520000000000000E-002    2.585655700817505E-024
  1.530000000000000E-002    1.452216425901742E-024
  1.540000000000000E-002   -5.399068026371615E-026
  1.550000000000000E-002   -1.863065136881764E-024
  1.560000000000000E-002   -3.861739987582906E-024
  1.570000000000000E-002   -5.895845024089854E-024
  1.580000000000000E-002   -7.777237121753677E-024
  1.590000000000000E-002   -9.295372489007351E-024
  1.600000000000000E-002   -1.023326041142663E-023
  1.610000000000000E-002   -1.038706938664706E-023
  1.620000000000000E-002   -9.588165468849606E-024
  1.630000000000000E-002   -7.725906626443624E-024
  1.640000000000000E-002   -4.769165858412446E-024
  1.650000000000000E-002   -7.842749452870002E-025
  1.660000000000000E-002    4.052939846809828E-024
  1.670000000000000E-002    9.453228360686970E-024
  1.680000000000000E-002    1.501991782657872E-023
  1.690000000000000E-002    2.026604803072572E-023
  1.700000000000000E-002    2.464302187342277E-023
  1.710000000000000E-002    2.758015898486299E-023
  1.720000000000000E-002    2.853342430553536E-023
  1.730000000000000E-002    2.704048938409780E-023
  1.740000000000000E-002    2.277816736100647E-023
  1.750000000000000E-002    1.561747105478166E-023
  1.760000000000000E-002    5.670787600012839E-024
  1.770000000000000E-002   -6.674418385118688E-024
  1.780000000000000E-002   -2.074082866599624E-023
  1.790000000000000E-002   -3.557008646833269E-023
  1.800000000000000E-002   -4.995857759543290E-023
  1.810000000000000E-002   -6.252172333272040E-023
  1.820000000000000E-002   -7.178608975699566E-023
  1.830000000000000E-002   -7.630598725294739E-023
  1.840000000000000E-002   -7.479849717758043E-023
  1.850000000000000E-002   -6.628807544328343E-023
  1.860000000000000E-002   -5.024963829593173E-023
  1.870000000000000E-002   -2.673695568762278E-023