 -4.000000000000000E-002    0.000000000000000E+000
 -3.990000000000000E-002    0.000000000000000E+000
 -3.980000000000000E-002    0.000000000000000E+000
 -3.970000000000000E-002    0.000000000000000E+000
 -3.960000000000000E-002    0.000000000000000E+000
 -3.950000000000000E-002    0.000000000000000E+000
 -3.940000000000000E-002    0.000000000000000E+000
 -3.930000000000000E-002    0.000000000000000E+000
 -3.920000000000000E-002    0.000000000000000E+000
 -3.910000000000000E-002    0.000000000000000E+000
 -3.900000000000000E-002    0.000000000000000E+000
 -3.890000000000000E-002    0.000000000000000E+000
 -3.880000000000000E-002    0.000000000000000E+000
 -3.870000000000000E-002    0.000000000000000E+000
 -3.860000000000000E-002    0.000000000000000E+000
 -3.850000000000000E-002    0.000000000000000E+000
 -3.840000000000000E-002    0.000000000000000E+000
 -3.830000000000000E-002    0.000000000000000E+000
 -3.820000000000000E-002    0.000000000000000E+000
 -3.810000000000000E-002    0.000000000000000E+000
 -3.800000000000000E-002    0.000000000000000E+000
 -3.790000000000000E-002    0.000000000000000E+000
 -3.780000000000000E-002    0.000000000000000E+000
 -3.770000000000000E-002    0.000000000000000E+000
 -3.760000000000000E-002    0.000000000000000E+000
 -3.750000000000000E-002    0.000000000000000E+000
 -3.740000000000000E-002    0.000000000000000E+000
 -3.730000000000000E-002    0.000000000000000E+000
 -3.720000000000000E-002    0.000000000000000E+000
 -3.710000000000000E-002    0.000000000000000E+000
 -3.700000000000000E-002    0.000000000000000E+000
 -3.690000000000000E-002    0.000000000000000E+000
 -3.680000000000000E-002    0.000000000000000E+000
 -3.670000000000000E-002    0.000000000000000E+000
 -3.660000000000000E-002    0.000000000000000E+000
 -3.650000000000000E-002    0.000000000000000E+000
 -3.640000000000000E-002    0.000000000000000E+000
 -3.630000000000000E-002    0.000000000000000E+000
 -3.620000000000000E-002    0.000000000000000E+000
 -3.610000000000000E-002    0.000000000000000E+000
 -3.600000000000000E-002    0.000000000000000E+000
 -3.590000000000000E-002    0.000000000000000E+000
 -3.580000000000000E-002    0.000000000000000E+000
 -3.570000000000000E-002    0.000000000000000E+000
 -3.560000000000000E-002    0.000000000000000E+000
 -3.550000000000000E-002    0.000000000000000E+000
 -3.540000000000000E-002    0.000000000000000E+000
 -3.530000000000000E-002    0.000000000000000E+000
 -3.520000000000000E-002    0.000000000000000E+000
 -3.510000000000000E-002    0.000000000000000E+000
 -3.500000000000000E-002    0.000000000000000E+000
 -3.490000000000000E-002    0.000000000000000E+000
 -3.480000000000000E-002    0.000000000000000E+000
 -3.470000000000000E-002    0.000000000000000E+000
 -3.460000000000000E-002    0.000000000000000E+000
 -3.450000000000000E-002    0.000000000000000E+000
 -3.440000000000000E-002    0.000000000000000E+000
 -3.430000000000000E-002    0.000000000000000E+000
 -3.420000000000000E-002    0.000000000000000E+000
 -3.410000000000000E-002    0.000000000000000E+000
 -3.400000000000000E-002    0.000000000000000E+000
 -3.390000000000000E-002    0.000000000000000E+000
 -3.380000000000000E-002    0.000000000000000E+000
 -3.370000000000000E-002    0.000000000000000E+000
 -3.360000000000000E-002    0.000000000000000E+000
 -3.350000000000000E-002    0.000000000000000E+000
 -3.340000000000000E-002    0.000000000000000E+000
 -3.330000000000000E-002    0.000000000000000E+000
 -3.320000000000000E-002    0.000000000000000E+000
 -3.310000000000000E-002    0.000000000000000E+000
 -3.300000000000000E-002    0.000000000000000E+000
 -3.290000000000000E-002    0.000000000000000E+000
 -3.280000000000000E-002    0.000000000000000E+000
 -3.270000000000000E-002    0.000000000000000E+000
 -3.260000000000000E-002    0.000000000000000E+000
 -3.250000000000000E-002    0.000000000000000E+000
 -3.240000000000000E-002    0.000000000000000E+000
 -3.230000000000000E-002    0.000000000000000E+000
 -3.220000000000000E-002    0.000000000000000E+000
 -3.210000000000000E-002    0.000000000000000E+000
 -3.200000000000000E-002    0.000000000000000E+000
 -3.190000000000000E-002    0.000000000000000E+000
 -3.180000000000000E-002    0.000000000000000E+000
 -3.170000000000000E-002    0.000000000000000E+000
 -3.160000000000000E-002    0.000000000000000E+000
 -3.150000000000000E-002    0.000000000000000E+000
 -3.140000000000000E-002    0.000000000000000E+000
 -3.130000000000000E-002    0.000000000000000E+000
 -3.120000000000000E-002    0.000000000000000E+000
 -3.110000000000000E-002    0.000000000000000E+000
 -3.100000000000000E-002    0.000000000000000E+000
 -3.090000000000000E-002    0.000000000000000E+000
 -3.080000000000000E-002    0.000000000000000E+000
 -3.070000000000000E-002    0.000000000000000E+000
 -3.060000000000000E-002    0.000000000000000E+000
 -3.050000000000000E-002    0.000000000000000E+000
 -3.040000000000000E-002    0.000000000000000E+000
 -3.030000000000000E-002    0.000000000000000E+000
 -3.020000000000000E-002    0.000000000000000E+000
 -3.010000000000000E-002    0.000000000000000E+000
 -3.000000000000000E-002    0.000000000000000E+000
 -2.990000000000000E-002    0.000000000000000E+000
 -2.980000000000000E-002    0.000000000000000E+000
 -2.970000000000000E-002    0.000000000000000E+000
 -2.960000000000000E-002    0.000000000000000E+000
 -2.950000000000000E-002    0.000000000000000E+000
 -2.940000000000000E-002    0.000000000000000E+000
 -2.930000000000000E-002    0.000000000000000E+000
 -2.920000000000000E-002    0.000000000000000E+000
 -2.910000000000000E-002    0.000000000000000E+000
 -2.900000000000000E-002    0.000000000000000E+000
 -2.890000000000000E-002    0.000000000000000E+000
 -2.880000000000000E-002    0.000000000000000E+000
 -2.870000000000000E-002    0.000000000000000E+000
 -2.860000000000000E-002    0.000000000000000E+000
 -2.850000000000000E-002    0.000000000000000E+000
 -2.840000000000000E-002    0.000000000000000E+000
 -2.830000000000000E-002    0.000000000000000E+000
 -2.820000000000000E-002    0.000000000000000E+000
 -2.810000000000000E-002    0.000000000000000E+000
 -2.800000000000000E-002    0.000000000000000E+000
 -2.790000000000000E-002    0.000000000000000E+000
 -2.780000000000000E-002    0.000000000000000E+000
 -2.770000000000000E-002    0.000000000000000E+000
 -2.760000000000000E-002    0.000000000000000E+000
 -2.750000000000000E-002    0.000000000000000E+000
 -2.740000000000000E-002    0.000000000000000E+000
 -2.730000000000000E-002    0.000000000000000E+000
 -2.720000000000000E-002    0.000000000000000E+000
 -2.710000000000000E-002    0.000000000000000E+000
 -2.700000000000000E-002    0.000000000000000E+000
 -2.690000000000000E-002    0.000000000000000E+000
 -2.680000000000000E-002    0.000000000000000E+000
 -2.670000000000000E-002    0.000000000000000E+000
 -2.660000000000000E-002    0.000000000000000E+000
 -2.650000000000000E-002    0.000000000000000E+000
 -2.640000000000000E-002    0.000000000000000E+000
 -2.630000000000000E-002    0.000000000000000E+000
 -2.620000000000000E-002    0.000000000000000E+000
 -2.610000000000000E-002    0.000000000000000E+000
 -2.600000000000000E-002    0.000000000000000E+000
 -2.590000000000000E-002    0.000000000000000E+000
 -2.580000000000000E-002    0.000000000000000E+000
 -2.570000000000000E-002    0.000000000000000E+000
 -2.560000000000000E-002    0.000000000000000E+000
 -2.550000000000000E-002    0.000000000000000E+000
 -2.540000000000000E-002    0.000000000000000E+000
 -2.530000000000000E-002    0.000000000000000E+000
 -2.520000000000000E-002    0.000000000000000E+000
 -2.510000000000000E-002    0.000000000000000E+000
 -2.500000000000000E-002    0.000000000000000E+000
 -2.490000000000000E-002    0.000000000000000E+000
 -2.480000000000000E-002    0.000000000000000E+000
 -2.470000000000000E-002    0.000000000000000E+000
 -2.460000000000000E-002    0.000000000000000E+000
 -2.450000000000000E-002    0.000000000000000E+000
 -2.440000000000000E-002    0.000000000000000E+000
 -2.430000000000000E-002    0.000000000000000E+000
 -2.420000000000000E-002    0.000000000000000E+000
 -2.410000000000000E-002    0.000000000000000E+000
 -2.400000000000000E-002    0.000000000000000E+000
 -2.390000000000000E-002    0.000000000000000E+000
 -2.380000000000000E-002    0.000000000000000E+000
 -2.370000000000000E-002    0.000000000000000E+000
 -2.360000000000000E-002    0.000000000000000E+000
 -2.350000000000000E-002    0.000000000000000E+000
 -2.340000000000000E-002    0.000000000000000E+000
 -2.330000000000000E-002    0.000000000000000E+000
 -2.320000000000000E-002    0.000000000000000E+000
 -2.310000000000000E-002    0.000000000000000E+000
 -2.300000000000000E-002    0.000000000000000E+000
 -2.290000000000000E-002    0.000000000000000E+000
 -2.280000000000000E-002    0.000000000000000E+000
 -2.270000000000000E-002    0.000000000000000E+000
 -2.260000000000000E-002    0.000000000000000E+000
 -2.250000000000000E-002    0.000000000000000E+000
 -2.240000000000000E-002    0.000000000000000E+000
 -2.230000000000000E-002    0.000000000000000E+000
 -2.220000000000000E-002    0.000000000000000E+000
 -2.210000000000000E-002    0.000000000000000E+000
 -2.200000000000000E-002    0.000000000000000E+000
 -2.190000000000000E-002    0.000000000000000E+000
 -2.180000000000000E-002    0.000000000000000E+000
 -2.170000000000000E-002    0.000000000000000E+000
 -2.160000000000000E-002    0.000000000000000E+000
 -2.150000000000000E-002    0.000000000000000E+000
 -2.140000000000000E-002    0.000000000000000E+000
 -2.130000000000000E-002    0.000000000000000E+000
 -2.120000000000000E-002    0.000000000000000E+000
 -2.110000000000000E-002    0.000000000000000E+000
 -2.100000000000000E-002    0.000000000000000E+000
 -2.090000000000000E-002    1.551510270462385E-048
 -2.080000000000000E-002    3.103020540924771E-048
 -2.070000000000000E-002    4.654530811387156E-048
 -2.060000000000000E-002    4.654530811387156E-048
 -2.050000000000000E-002   -1.607941557943278E-048
 -2.040000000000000E-002   -1.097343446819848E-047
 -2.030000000000000E-002   -2.189043764891607E-047
 -2.020000000000000E-002   -3.591046137055843E-047
 -2.010000000000000E-002   -5.132213013254056E-047
 -2.000000000000000E-002   -6.202283679565464E-047
 -1.990000000000000E-002   -5.690590805592459E-047
 -1.980000000000000E-002   -1.059006547221300E-047
 -1.970000000000000E-002    5.739991824281114E-047
 -1.960000000000000E-002    2.252390995240978E-046
 -1.950000000000000E-002    4.364859441839495E-046
 -1.940000000000000E-002    8.727558217136914E-046
 -1.930000000000000E-002    1.358714241978837E-045
 -1.920000000000000E-002    1.572400072326010E-045
 -1.910000000000000E-002    8.035966305227059E-046
 -1.900000000000000E-002   -4.470991724635823E-046
 -1.890000000000000E-002   -2.367934151751312E-045
 -1.880000000000000E-002   -5.237299984547017E-045
 -1.870000000000000E-002   -8.442064689103732E-045
 -1.860000000000000E-002   -1.303583089104164E-044
 -1.850000000000000E-002   -1.714589447840416E-044
 -1.840000000000000E-002   -2.022147919077667E-044
 -1.830000000000000E-002   -2.093004255714149E-044
 -1.820000000000000E-002   -1.697543021267182E-044
 -1.810000000000000E-002   -6.546832607860747E-045
 -1.800000000000000E-002    1.244655042224005E-044
 -1.790000000000000E-002    4.016959801230991E-044
 -1.780000000000000E-002    7.693249953027418E-044
 -1.770000000000000E-002    1.187123549136256E-043
 -1.760000000000000E-002    1.584878744690696E-043
 -1.750000000000000E-002    1.850343855338627E-043
 -1.740000000000000E-002    1.851411691385714E-043
 -1.730000000000000E-002    1.415909212560053E-043
 -1.720000000000000E-002    3.916926089061779E-044
 -1.710000000000000E-002   -1.349450149162847E-043
 -1.700000000000000E-002   -3.832119902736514E-043
 -1.690000000000000E-002   -6.934655631638757E-043
 -1.680000000000000E-002   -1.030890522282598E-042
 -1.670000000000000E-002   -1.335623327896034E-042
 -1.660000000000000E-002   -1.521797970218969E-042
 -1.650000000000000E-002   -1.479730371080994E-042
 -1.640000000000000E-002   -1.091692586580817E-042
 -1.630000000000000E-002   -2.480321119687186E-043
 -1.620000000000000E-002    1.124694043656855E-042
 -1.610000000000000E-002    3.024511929918612E-042
 -1.600000000000000E-002    5.338539197547602E-042
 -1.590000000000000E-002    7.807879317901168E-042
 -1.580000000000000E-002    1.000646674407502E-041
 -1.570000000000000E-002    1.134011145763223E-041
 -1.560000000000000E-002    1.108429147130368E-041
 -1.550000000000000E-002    8.459345994627213E-042
 -1.540000000000000E-002    2.762804936622773E-042
 -1.530000000000000E-002   -6.464132006912191E-042
 -1.520000000000000E-002   -1.922643260651235E-041
 -1.510000000000000E-002   -3.486237961202967E-041
 -1.500000000000000E-002   -5.184598679564759E-041
 -1.490000000000000E-002   -6.766114188578224E-041
 -1.480000000000000E-002   -7.879990297392344E-041
 -1.470000000000000E-002   -8.091785049319262E-041
 -1.460000000000000E-002   -6.921362019679701E-041
 -1.450000000000000E-002   -3.904029594341512E-041
 -1.440000000000000E-002    1.324214610493180E-041
 -1.430000000000000E-002    8.920513270957083E-041
 -1.420000000000000E-002    1.871611624756066E-040
 -1.410000000000000E-002    3.009491439650224E-040
 -1.400000000000000E-002    4.188644982299520E-040
 -1.390000000000000E-002    5.229347106078321E-040
 -1.380000000000000E-002    5.887926581075246E-040
 -1.370000000000000E-002    5.864275490635044E-040
 -1.360000000000000E-002    4.821181971374417E-040
 -1.350000000000000E-002    2.418929662464075E-040
 -1.340000000000000E-002   -1.632073701309129E-040
 -1.330000000000000E-002   -7.498543021432681E-040
 -1.320000000000000E-002   -1.513139910631899E-039
 -1.310000000000000E-002   -2.415610728087283E-039
 -1.300000000000000E-002   -3.375545124327953E-039
 -1.290000000000000E-002   -4.256137972822513E-039
 -1.280000000000000E-002   -4.858266375733012E-039
 -1.270000000000000E-002   -4.920582827692260E-039
 -1.260000000000000E-002   -4.131683988626948E-039
 -1.250000000000000E-002   -2.159672546971583E-039
 -1.240000000000000E-002    1.295892444713058E-039
 -1.230000000000000E-002    6.426358363841719E-039
 -1.220000000000000E-002    1.321105424790889E-038
 -1.210000000000000E-002    2.129543294762303E-038
 -1.200000000000000E-002    2.986501318650401E-038
 -1.190000000000000E-002    3.754002131825576E-038
 -1.180000000000000E-002    4.232627901157391E-038
 -1.170000000000000E-002    4.166686448740057E-038
 -1.160000000000000E-002    3.264302647292251E-038
 -1.150000000000000E-002    1.236809446107904E-038
 -1.140000000000000E-002   -2.139947528201064E-038
 -1.130000000000000E-002   -6.943129650621329E-038
 -1.120000000000000E-002   -1.300509109317506E-037
 -1.110000000000000E-002   -1.981269483938778E-037
 -1.100000000000000E-002   -2.642375125351017E-037
 -1.090000000000000E-002   -3.142773904133635E-037
 -1.080000000000000E-002   -3.298303018271348E-037
 -1.070000000000000E-002   -2.896353801259046E-037
 -1.060000000000000E-002   -1.724159436219129E-037
 -1.050000000000000E-002    3.881210080172742E-038
 -1.040000000000000E-002    3.510878764260075E-037
 -1.030000000000000E-002    7.549975289485663E-037
 -1.020000000000000E-002    1.218224433872930E-036
 -1.010000000000000E-002    1.680514021114090E-036
 -1.000000000000000E-002    2.051785852106945E-036
 -9.899999999999999E-003    2.215318929212051E-036
 -9.800000000000000E-003    2.037826989670841E-036
 -9.699999999999999E-003    1.387695437929570E-036
 -9.599999999999999E-003    1.615987363549750E-037
 -9.500000000000000E-003   -1.681881577091581E-036
 -9.399999999999999E-003   -4.085065985464766E-036
 -9.299999999999999E-003   -6.856132626543852E-036
 -9.200000000000000E-003   -9.644113174124395E-036
 -9.099999999999999E-003   -1.193338869361386E-035
 -8.999999999999999E-003   -1.306751641512483E-035
 -8.900000000000000E-003   -1.231080253923109E-035
 -8.799999999999999E-003   -8.952346092312700E-036
 -8.699999999999999E-003   -2.451057728783860E-036
 -8.600000000000000E-003    7.388409581010012E-036
 -8.499999999999999E-003    2.022912031075150E-035
 -8.399999999999999E-003    3.503560720681052E-035
 -8.300000000000000E-003    4.996784291108061E-035
 -8.199999999999999E-003    6.238044405147732E-035
 -8.100000000000000E-003    6.897073419412957E-035
 -8.000000000000000E-003    6.610895109818864E-035
 -7.899999999999999E-003    5.036328668404051E-035
 -7.800000000000000E-003    1.920118685521513E-035
 -7.699999999999999E-003   -2.819161601429260E-035
 -7.599999999999999E-003   -9.007737603536247E-035
 -7.499999999999999E-003   -1.614636231817570E-034
 -7.399999999999999E-003   -2.337090363089385E-034
 -7.299999999999999E-003   -2.946269780651249E-034
 -7.199999999999999E-003   -3.292568865941794E-034
 -7.100000000000000E-003   -3.214172190246857E-034
 -6.999999999999999E-003   -2.560557279174264E-034
 -6.899999999999999E-003   -1.222770377664111E-034
 -6.800000000000000E-003    8.323599264849781E-035
 -6.699999999999999E-003    3.528609030394977E-034
 -6.599999999999999E-003    6.653385526858570E-034
 -6.499999999999999E-003    9.844407291352797E-034
 -6.399999999999999E-003    1.259709335957384E-033
 -6.299999999999999E-003    1.429860031379711E-033
 -6.199999999999999E-003    1.429188227397833E-033
 -6.100000000000000E-003    1.196918094690890E-033
 -5.999999999999999E-003    6.889162601564872E-034
 -5.899999999999999E-003   -1.093942395803093E-034
 -5.800000000000000E-003   -1.170666383807922E-033
 -5.699999999999999E-003   -2.416022145474852E-033
 -5.599999999999999E-003   -3.710669111130252E-033
 -5.499999999999999E-003   -4.867118100723760E-033
 -5.399999999999999E-003   -5.657878967307327E-033
 -5.299999999999999E-003   -5.838545400820732E-033
 -5.199999999999999E-003   -5.180788022081051E-033
 -5.099999999999999E-003   -3.513041032756038E-033
 -4.999999999999999E-003   -7.647938102168650E-034
 -4.899999999999999E-003    2.991364028791669E-033
 -4.799999999999999E-003    7.507129701916608E-033
 -4.699999999999999E-003    1.234306650409450E-032
 -4.599999999999999E-003    1.687766789391750E-032
 -4.499999999999999E-003    2.034646197048405E-032
 -4.399999999999999E-003    2.191368379593768E-032
 -4.299999999999999E-003    2.077481913341554E-032
 -4.199999999999999E-003    1.628328596947566E-032
 -4.099999999999999E-003    8.089165579887753E-033
 -3.999999999999999E-003   -3.726939708507079E-033
 -3.899999999999999E-003   -1.854548552221090E-032
 -3.799999999999999E-003   -3.514704280154833E-032
 -3.699999999999999E-003   -5.171961278545288E-032
 -3.599999999999999E-003   -6.595045418543833E-032
 -3.499999999999999E-003   -7.521091723766968E-032
 -3.399999999999999E-003   -7.683202826620786E-032
 -3.299999999999999E-003   -6.845584832521662E-032
 -3.199999999999999E-003   -4.843403466620288E-032
 -3.099999999999999E-003   -1.623235795431671E-032
 -2.999999999999999E-003    2.721014964024326E-032
 -2.899999999999999E-003    7.922443636213650E-032
 -2.799999999999999E-003    1.353138420787484E-031
 -2.699999999999999E-003    1.892652565314545E-031
 -2.599999999999999E-003    2.335041203420380E-031
 -2.499999999999999E-003    2.597067382828464E-031
 -2.399999999999999E-003    2.596558897828730E-031
 -2.299999999999999E-003    2.262943056256213E-031
 -2.199999999999999E-003    1.548973526995452E-031
 -2.099999999999999E-003    4.425493323270042E-032
 -1.999999999999999E-003   -1.022740071801804E-031
 -1.899999999999999E-003   -2.759891167476045E-031
 -1.799999999999999E-003   -4.625190354693076E-031
 -1.699999999999999E-003   -6.420856005438885E-031
 -1.599999999999999E-003   -7.904846212446673E-031
 -1.499999999999999E-003   -8.808574555917238E-031
 -1.399999999999999E-003   -8.862564308527064E-031
 -1.299999999999999E-003   -7.829165589514494E-031
 -1.199999999999999E-003   -5.540367681032277E-031
 -1.099999999999999E-003   -1.937564484243688E-031
 -9.999999999999989E-004    2.891049326660790E-031
 -8.999999999999990E-004    8.680778593482473E-031
 -7.999999999999990E-004    1.497440242516757E-030
 -6.999999999999989E-004    2.112587913020130E-030
 -5.999999999999990E-004    2.632913934092528E-030
 -4.999999999999989E-004    2.967563950660247E-030
 -3.999999999999989E-004    3.024163655913187E-030
 -2.999999999999989E-004    2.720237711595127E-030
 -1.999999999999989E-004    1.996583875114048E-030
 -9.999999999999892E-005    8.313691150058719E-031
  1.084202172485504E-018   -7.467578853773533E-031
  1.000000000000011E-004   -2.648618353685046E-030
  2.000000000000011E-004   -4.719774363289102E-030
  3.000000000000011E-004   -6.743274552362785E-030
  4.000000000000011E-004   -8.451578032146422E-030
  5.000000000000011E-004   -9.548514065816689E-030
  6.000000000000011E-004   -9.740929624672098E-030
  7.000000000000011E-004   -8.778167778376516E-030
  8.000000000000011E-004   -6.495890263731801E-030
  9.000000000000012E-004   -2.859189671869968E-030
  1.000000000000001E-003    2.001261244050600E-030
  1.100000000000001E-003    7.766854582166293E-030
  1.200000000000001E-003    1.392900294936545E-029
  1.300000000000001E-003    1.981253582754496E-029
  1.400000000000001E-003    2.462715542157692E-029
  1.500000000000001E-003    2.754606234827348E-029
  1.600000000000001E-003    2.780664997663461E-029
  1.700000000000001E-003    2.482377779110003E-029
  1.800000000000001E-003    1.830219570757472E-029
  1.900000000000001E-003    8.331956505429134E-030
  2.000000000000001E-003   -4.550167488904433E-030
  2.100000000000001E-003   -1.934863285493398E-029
  2.200000000000001E-003   -3.465743193546155E-029
  2.300000000000001E-003   -4.877281422648450E-029
  2.400000000000001E-003   -5.986546412933717E-029
  2.500000000000001E-003   -6.619725941662375E-029
  2.600000000000001E-003   -6.635821530197846E-029
  2.700000000000001E-003   -5.949190976816695E-029
  2.800000000000001E-003   -4.547409231907465E-029
  2.900000000000001E-003   -2.501079246922670E-029
  3.000000000000001E-003    3.703504054195117E-031
  3.100000000000001E-003    2.844860222119054E-029
  3.200000000000001E-003    5.655375932564196E-029
  3.300000000000001E-003    8.189998108789287E-029
  3.400000000000001E-003    1.019654020150391E-028
  3.500000000000001E-003    1.148578567951751E-028
  3.600000000000001E-003    1.195996894434236E-028
  3.700000000000001E-003    1.162680330761187E-028
  3.800000000000001E-003    1.059427618200773E-028
  3.900000000000001E-003    9.044231222050244E-029
  4.000000000000001E-003    7.186517431976156E-029
  4.100000000000001E-003    5.199731344542108E-029
  4.200000000000001E-003    3.168624219423443E-029
  4.300000000000001E-003    1.031325903467829E-029
  4.400000000000001E-003   -1.449143369114373E-029
  4.500000000000001E-003   -4.675755404689127E-029
  4.600000000000002E-003   -9.161260553540137E-029
  4.700000000000001E-003   -1.542211251196353E-028
  4.800000000000001E-003   -2.382857819846544E-028
  4.900000000000002E-003   -3.442718479070054E-028
  5.000000000000001E-003   -4.676145250459907E-028
  5.100000000000001E-003   -5.972465977804262E-028
  5.200000000000001E-003   -7.148246126096452E-028
  5.300000000000002E-003   -7.950175518217735E-028
  5.400000000000001E-003   -8.071467214308523E-028
  5.500000000000001E-003   -7.183215185110140E-028
  5.600000000000002E-003   -4.980164230729175E-028
  5.700000000000001E-003   -1.237926464340282E-028
  5.800000000000001E-003    4.123840571209723E-028
  5.900000000000002E-003    1.098008651179585E-027
  6.000000000000001E-003    1.895035166878206E-027
  6.100000000000001E-003    2.737030364781322E-027
  6.200000000000002E-003    3.529454170652853E-027
  6.300000000000002E-003    4.153845624532855E-027
  6.400000000000001E-003    4.476355791975679E-027
  6.500000000000001E-003    4.360611221090833E-027
  6.600000000000002E-003    3.684344117902062E-027
  6.700000000000001E-003    2.358637898824276E-027
  6.800000000000001E-003    3.480807739810109E-028
  6.900000000000002E-003   -2.310352708886224E-027
  7.000000000000001E-003   -5.492185683728841E-027
  7.100000000000001E-003   -8.976684680409149E-027
  7.200000000000002E-003   -1.244692794740726E-026
  7.300000000000002E-003   -1.550072607010592E-026
  7.400000000000001E-003   -1.767374908706863E-026
  7.500000000000001E-003   -1.847525956036949E-026
  7.600000000000002E-003   -1.743567006769688E-026
  7.700000000000001E-003   -1.416381115020458E-026
  7.800000000000001E-003   -8.410349691861052E-027
  7.900000000000001E-003   -1.323266395299791E-028
  8.000000000000002E-003    1.044755754187507E-026
  8.100000000000001E-003    2.279439865484039E-026
  8.200000000000001E-003    3.603550743760524E-026
  8.300000000000002E-003    4.896411219545636E-026
  8.400000000000001E-003    6.007997316845616E-026
  8.500000000000002E-003    6.767286294525668E-026
  8.600000000000002E-003    6.995199908798993E-026
  8.700000000000001E-003    6.522038588947335E-026
  8.800000000000002E-003    5.208770996176257E-026
  8.900000000000002E-003    2.970910446620383E-026
  9.000000000000001E-003   -1.969710023734194E-027
  9.100000000000002E-003   -4.198713910773637E-026
  9.200000000000002E-003   -8.819205143707762E-026
  9.300000000000001E-003   -1.371570048767350E-025
  9.400000000000002E-003   -1.842136583503017E-025
  9.500000000000001E-003   -2.236413682318289E-025
  9.600000000000001E-003   -2.490302558141687E-025
  9.700000000000002E-003   -2.538250066485403E-025
  9.800000000000001E-003   -2.320350552308656E-025
  9.900000000000001E-003   -1.790723557637934E-025
  1.000000000000000E-002   -9.265135267350911E-026
  1.010000000000000E-002    2.633984025300629E-026
  1.020000000000000E-002    1.731090723766619E-025
  1.030000000000000E-002    3.384953224014348E-025
  1.040000000000000E-002    5.088939028053847E-025
  1.050000000000000E-002    6.666811291932995E-025
  1.060000000000000E-002    7.912140133042711E-025
  1.070000000000000E-002    8.604306090679875E-025
  1.080000000000000E-002    8.530093301812245E-025
  1.090000000000000E-002    7.509691304411355E-025
  1.100000000000000E-002    5.425109950893210E-025
  1.110000000000000E-002    2.248263645706090E-025
  1.120000000000000E-002   -1.934611067404561E-025
  1.130000000000000E-002   -6.905867047021189E-025
  1.140000000000000E-002   -1.231030400272851E-024
  1.150000000000000E-002   -1.766311215831378E-024
  1.160000000000000E-002   -2.237410003312547E-024
  1.170000000000000E-002   -2.578900193286783E-024
  1.180000000000000E-002   -2.724689848170050E-024
  1.190000000000000E-002   -2.615075941303957E-024
  1.200000000000000E-002   -2.204605291626135E-024
  1.210000000000000E-002   -1.470045508740879E-024
  1.220000000000000E-002   -4.176193053919809E-025
  1.230000000000000E-002    9.114290889784508E-025
  1.240000000000000E-002    2.437866354697421E-024
  1.250000000000000E-002    4.044931274824456E-024
  1.260000000000000E-002    5.582848388436401E-024
  1.270000000000000E-002    6.877704891592204E-024
  1.280000000000000E-002    7.744606364499511E-024
  1.290000000000000E-002    8.004567908410924E-024
  1.300000000000000E-002    7.504110937425017E-024
  1.310000000000000E-002    6.136075850155238E-024
  1.320000000000000E-002    3.859765662238748E-024
  1.330000000000000E-002    7.182602631238364E-025
  1.340000000000000E-002   -3.149367236645514E-024
  1.350000000000000E-002   -7.503108733416919E-024
  1.360000000000000E-002   -1.200620506122374E-023
  1.370000000000000E-002   -1.623975371872995E-023
  1.380000000000000E-002   -1.972825940518161E-023
  1.390000000000000E-002   -2.197567246034517E-023
  1.400000000000000E-002   -2.251036676199007E-023
  1.410000000000000E-002   -2.093635582534098E-023
  1.420000000000000E-002   -1.698693930180309E-023
  1.430000000000000E-002   -1.057603056076789E-023
  1.440000000000000E-002   -1.841729471182122E-024
  1.450000000000000E-002    8.823561646363633E-024
  1.460000000000000E-002    2.076198640718822E-023
  1.470000000000000E-002    3.306276852146833E-023
  1.480000000000000E-002    4.460177871811829E-023
  1.490000000000000E-002    5.410948968127902E-023
  1.500000000000000E-002    6.026620196022696E-023
  1.510000000000000E-002    6.182052859865671E-023
  1.520000000000000E-002    5.772407121664343E-023
  1.530000000000000E-002    4.727228345331350E-023
  1.540000000000000E-002    3.023892407650471E-023
  1.550000000000000E-002    6.989732770052469E-024
  1.560000000000000E-002   -2.143979807043317E-023
  1.570000000000000E-002   -5.331703072384504E-023
  1.580000000000000E-002   -8.624745101100567E-023
  1.590000000000000E-002   -1.172809921492902E-022
  1.600000000000000E-002   -1.430923888935592E-022
  1.610000000000000E-002   -1.602316962873997E-022
  1.620000000000000E-002   -1.654335026377699E-022
  1.630000000000000E-002   -1.559653539407546E-022
  1.640000000000000E-002   -1.299885308082385E-022
  1.650000000000000E-002   -8.689813394434725E-023
  1.660000000000000E-002   -2.760561594204970E-023
  1.670000000000000E-002    4.527399785445452E-023
  1.680000000000000E-002    1.273652515906287E-022
  1.690000000000000E-002    2.126341374468828E-022
  1.700000000000000E-002    2.936663883119425E-022
  1.710000000000000E-002    3.621257908258277E-022
  1.720000000000000E-002    4.093791881404514E-022
  1.730000000000000E-002    4.272566267220751E-022
  1.740000000000000E-002    4.088968536657605E-022
  1.750000000000000E-002    3.496122881793589E-022
  1.760000000000000E-002    2.476949450882132E-022
  1.770000000000000E-002    1.050783015214779E-022
  1.780000000000000E-002   -7.223009790084217E-023
  1.790000000000000E-002   -2.740219307920501E-022
  1.800000000000000E-002   -4.861274506525708E-022
  1.810000000000000E-002   -6.910563081530237E-022
  1.820000000000000E-002   -8.690438670237937E-022
  1.830000000000000E-002   -9.994705607922896E-022
  1.840000000000000E-002   -1.062583210471887E-021
  1.850000000000000E-002   -1.041409739926889E-021
  1.860000000000000E-002   -9.237252706547810E-022
  1.870000000000000E-002   -7.039025127076423E-022