 -4.000000000000000E-002    0.000000000000000E+000
 -3.990000000000000E-002    0.000000000000000E+000
 -3.980000000000000E-002    0.000000000000000E+000
 -3.970000000000000E-002    0.000000000000000E+000
 -3.960000000000000E-002    0.000000000000000E+000
 -3.950000000000000E-002    0.000000000000000E+000
 -3.940000000000000E-002    0.000000000000000E+000
 -3.930000000000000E-002    0.000000000000000E+000
 -3.920000000000000E-002    0.000000000000000E+000
 -3.910000000000000E-002    0.000000000000000E+000
 -3.900000000000000E-002   -1.997795613843313E-035
 -3.890000000000000E-002   -4.163318217489566E-034
 -3.880000000000000E-002   -4.535674706803050E-033
 -3.870000000000000E-002   -3.435239671978586E-032
 -3.860000000000000E-002   -2.029709777574551E-031
 -3.850000000000000E-002   -9.954643831609731E-031
 -3.840000000000000E-002   -4.211246313621464E-030
 -3.830000000000000E-002   -1.576868261653696E-029
 -3.820000000000000E-002   -5.322624873329938E-029
 -3.810000000000000E-002   -1.641516739065511E-028
 -3.800000000000000E-002   -4.672600047199850E-028
 -3.790000000000000E-002   -1.237184202334651E-027
 -3.780000000000000E-002   -3.065195209359200E-027
 -3.770000000000000E-002   -7.138256850521183E-027
 -3.760000000000000E-002   -1.567727614765968E-026
 -3.750000000000000E-002   -3.254189786997483E-026
 -3.740000000000000E-002   -6.390975131569172E-026
 -3.730000000000000E-002   -1.187246631426090E-025
 -3.720000000000000E-002   -2.082258734682773E-025
 -3.710000000000000E-002   -3.432758894358450E-025
 -3.700000000000000E-002   -5.274054768943970E-025
 -3.690000000000000E-002   -7.426068666673836E-025
 -3.680000000000000E-002   -9.242312469855976E-025
 -3.670000000000000E-002   -9.214499393458222E-025
 -3.660000000000000E-002   -4.414960106367477E-025
 -3.650000000000000E-002    1.019517629040507E-024
 -3.640000000000000E-002    4.247724773755143E-024
 -3.630000000000000E-002    1.035927834565950E-023
 -3.620000000000000E-002    2.078032250276030E-023
 -3.610000000000000E-002    3.709176314514924E-023
 -3.600000000000000E-002    6.064893194486364E-023
 -3.590000000000000E-002    9.187188766061420E-023
 -3.580000000000000E-002    1.291079159748669E-022
 -3.570000000000000E-002    1.670091083446065E-022
 -3.560000000000000E-002    1.944621944896200E-022
 -3.550000000000000E-002    1.922702235528225E-022
 -3.540000000000000E-002    1.310242008632431E-022
 -3.530000000000000E-002   -3.009057373205954E-023
 -3.520000000000000E-002   -3.424655258247580E-022
 -3.510000000000000E-002   -8.638110585598436E-022
 -3.500000000000000E-002   -1.648871845324339E-021
 -3.490000000000000E-002   -2.733580251235925E-021
 -3.480000000000000E-002   -4.111588471377775E-021
 -3.470000000000000E-002   -5.703160272033373E-021
 -3.460000000000000E-002   -7.318120813485186E-021
 -3.450000000000000E-002   -8.616994159480963E-021
 -3.440000000000000E-002   -9.077484368307935E-021
 -3.430000000000000E-002   -7.976786795614272E-021
 -3.420000000000000E-002   -4.403326526165804E-021
 -3.410000000000000E-002    2.686360953699086E-021
 -3.400000000000000E-002    1.434967105838995E-020
 -3.390000000000000E-002    3.146572356737651E-020
 -3.380000000000000E-002    5.446244541940844E-020
 -3.370000000000000E-002    8.296778830538282E-020
 -3.360000000000000E-002    1.154061012791135E-019
 -3.350000000000000E-002    1.485809588626400E-019
 -3.340000000000000E-002    1.773086847272754E-019
 -3.330000000000000E-002    1.941894691399902E-019
 -3.320000000000000E-002    1.896216006289157E-019
 -3.310000000000000E-002    1.521744512927635E-019
 -3.300000000000000E-002    6.943135884981203E-020
 -3.290000000000000E-002   -7.060880516260795E-020
 -3.280000000000000E-002   -2.775288053075203E-019
 -3.270000000000000E-002   -5.559161250743653E-019
 -3.260000000000000E-002   -9.023338122837311E-019
 -3.250000000000000E-002   -1.302072936937384E-018
 -3.240000000000000E-002   -1.726045087369606E-018
 -3.230000000000000E-002   -2.128291643031143E-018
 -3.220000000000000E-002   -2.444690781159732E-018
 -3.210000000000000E-002   -2.593502830075463E-018
 -3.200000000000000E-002   -2.478402165450891E-018
 -3.190000000000000E-002   -1.994569436839937E-018
 -3.180000000000000E-002   -1.038251674150632E-018
 -3.170000000000000E-002    4.800706775450216E-019
 -3.160000000000000E-002    2.619144008247479E-018
 -3.150000000000000E-002    5.387739313092212E-018
 -3.140000000000000E-002    8.724039687558659E-018
 -3.130000000000000E-002    1.247546910259831E-017
 -3.120000000000000E-002    1.638139659088840E-017
 -3.110000000000000E-002    2.006168336174450E-017
 -3.100000000000000E-002    2.301441494931465E-017
 -3.090000000000000E-002    2.462632109828295E-017
 -3.080000000000000E-002    2.419924228520776E-017
 -3.070000000000000E-002    2.099539598133118E-017
 -3.060000000000000E-002    1.430314827553728E-017
 -3.050000000000000E-002    3.523329618966457E-018
 -3.040000000000000E-002   -1.172608491841762E-017
 -3.030000000000000E-002   -3.149192735861089E-017
 -3.020000000000000E-002   -5.536262789997994E-017
 -3.010000000000000E-002   -8.235158837274032E-017
 -3.000000000000000E-002   -1.108021908206896E-016
 -2.990000000000000E-002   -1.383323794344416E-016
 -2.980000000000000E-002   -1.618384456725666E-016
 -2.970000000000000E-002   -1.775777193917839E-016
 -2.960000000000000E-002   -1.813474732461434E-016
 -2.950000000000000E-002   -1.687722066697209E-016
 -2.940000000000000E-002   -1.357028912557443E-016
 -2.930000000000000E-002   -7.872013423775441E-017
 -2.920000000000000E-002    4.281556361285930E-018
 -2.910000000000000E-002    1.134679533340041E-016
 -2.900000000000000E-002    2.464542759077877E-016
 -2.890000000000000E-002    3.977818153254311E-016
 -2.880000000000000E-002    5.585660919401454E-016
 -2.870000000000000E-002    7.164053995173484E-016
 -2.860000000000000E-002    8.556345739812636E-016
 -2.850000000000000E-002    9.579921722882989E-016
 -2.840000000000000E-002    1.003741522586266E-015
 -2.830000000000000E-002    9.732439950899991E-016
 -2.820000000000000E-002    8.489302709182323E-016
 -2.810000000000000E-002    6.175569961958805E-016
 -2.800000000000000E-002    2.725743021280864E-016
 -2.790000000000000E-002   -1.836243636150074E-016
 -2.780000000000000E-002   -7.378401551192274E-016
 -2.770000000000000E-002   -1.364881883969041E-015
 -2.760000000000000E-002   -2.027330229762813E-015
 -2.750000000000000E-002   -2.676478833352942E-015
 -2.740000000000000E-002   -3.254596525949210E-015
 -2.730000000000000E-002   -3.698531533442211E-015
 -2.720000000000000E-002   -3.944532454641059E-015
 -2.710000000000000E-002   -3.934003543109637E-015
 -2.700000000000000E-002   -3.619750129609820E-015
 -2.690000000000000E-002   -2.972141548298744E-015
 -2.680000000000000E-002   -1.984532442558292E-015
 -2.670000000000000E-002   -6.772564067791813E-016
 -2.660000000000000E-002    9.004288591162748E-016
 -2.650000000000000E-002    2.670932672776959E-015
 -2.640000000000000E-002    4.531715199551026E-015
 -2.630000000000000E-002    6.361434738413847E-015
 -2.620000000000000E-002    8.028509236104263E-015
 -2.610000000000000E-002    9.401398577284626E-015
 -2.600000000000000E-002    1.035965271463144E-014
 -2.590000000000000E-002    1.080454864724911E-014
 -2.580000000000000E-002    1.066808608068850E-014
 -2.570000000000000E-002    9.919191137293952E-015
 -2.560000000000000E-002    8.566229515621450E-015
 -2.550000000000000E-002    6.655331336908037E-015
 -2.540000000000000E-002    4.264574539925669E-015
 -2.530000000000000E-002    1.494647142918097E-015
 -2.520000000000000E-002   -1.542802189366345E-015
 -2.510000000000000E-002   -4.737435246447970E-015
 -2.500000000000000E-002   -7.991155091445993E-015
 -2.490000000000000E-002   -1.122567815862737E-014
 -2.480000000000000E-002   -1.438502171374752E-014
 -2.470000000000000E-002   -1.743178321674705E-014
 -2.460000000000000E-002   -2.033693646812277E-014
 -2.450000000000000E-002   -2.306397168432371E-014
 -2.440000000000000E-002   -2.554933801345466E-014
 -2.430000000000000E-002   -2.768219192743870E-014
 -2.420000000000000E-002   -2.928726781725084E-014
 -2.410000000000000E-002   -3.011500458840703E-014
 -2.400000000000000E-002   -2.984288504731559E-014
 -2.390000000000000E-002   -2.809107741789653E-014
 -2.380000000000000E-002   -2.445395328776646E-014
 -2.370000000000000E-002   -1.854705192001312E-014
 -2.360000000000000E-002   -1.006667787933138E-014
 -2.350000000000000E-002    1.143185390438491E-015
 -2.340000000000000E-002    1.502409571344575E-014
 -2.330000000000000E-002    3.124559956762496E-014
 -2.320000000000000E-002    4.916661910642116E-014
 -2.310000000000000E-002    6.782492659635907E-014
 -2.300000000000000E-002    8.596200900709937E-014
 -2.290000000000000E-002    1.020873133022396E-013
 -2.280000000000000E-002    1.145817628249386E-013
 -2.270000000000000E-002    1.218352227946754E-013
 -2.260000000000000E-002    1.224075856308498E-013
 -2.250000000000000E-002    1.151983870465475E-013
 -2.240000000000000E-002    9.960640983865899E-014
 -2.230000000000000E-002    7.565912098578800E-014
 -2.220000000000000E-002    4.409236317910773E-014
 -2.210000000000000E-002    6.364100628977744E-015
 -2.200000000000000E-002   -3.540838629230076E-014
 -2.190000000000000E-002   -7.859024849453083E-014
 -2.180000000000000E-002   -1.202430175255277E-013
 -2.170000000000000E-002   -1.573939515256516E-013
 -2.160000000000000E-002   -1.873351060224612E-013
 -2.150000000000000E-002   -2.079192043256460E-013
 -2.140000000000000E-002   -2.178159495487140E-013
 -2.130000000000000E-002   -2.166924512672133E-013
 -2.120000000000000E-002   -2.052867307889360E-013
 -2.110000000000000E-002   -1.853532213357333E-013
 -2.100000000000000E-002   -1.594723960217380E-013
 -2.090000000000000E-002   -1.307340401156743E-013
 -2.080000000000000E-002   -1.023207852041937E-013
 -2.070000000000000E-002   -7.703533661386525E-014
 -2.060000000000000E-002   -5.682813586665929E-014
 -2.050000000000000E-002   -4.238956689108267E-014
 -2.040000000000000E-002   -3.287165057047927E-014
 -2.030000000000000E-002   -2.579589070118891E-014
 -2.020000000000000E-002   -1.718789546147132E-014
 -2.010000000000000E-002   -1.955540644635425E-015
 -2.000000000000000E-002    2.550210530439216E-014
 -1.990000000000000E-002    7.049928695144793E-014
 -1.980000000000000E-002    1.371564202584948E-013
 -1.970000000000000E-002    2.274823141154010E-013
 -1.960000000000000E-002    3.405621212630657E-013
 -1.950000000000000E-002    4.719723493667720E-013
 -1.940000000000000E-002    6.135342185300166E-013
 -1.930000000000000E-002    7.534897516269026E-013
 -1.920000000000000E-002    8.771479000696507E-013
 -1.910000000000000E-002    9.679949601239098E-013
 -1.900000000000000E-002    1.009210252534732E-012
 -1.890000000000000E-002    9.854682255611492E-013
 -1.880000000000000E-002    8.848599999554520E-013
 -1.870000000000000E-002    7.007307461706777E-013
 -1.860000000000000E-002    4.332110239116460E-013
 -1.850000000000000E-002    9.022914108728013E-014
 -1.840000000000000E-002   -3.121774447085463E-013
 -1.830000000000000E-002   -7.503729434268943E-013
 -1.820000000000000E-002   -1.194501209843774E-012
 -1.810000000000000E-002   -1.610679099443616E-012
 -1.800000000000000E-002   -1.963857496397551E-012
 -1.790000000000000E-002   -2.221106006349689E-012
 -1.780000000000000E-002   -2.355008551117044E-012
 -1.770000000000000E-002   -2.346806106502265E-012
 -1.760000000000000E-002   -2.188915321141891E-012
 -1.750000000000000E-002   -1.886487607215678E-012
 -1.740000000000000E-002   -1.457745655536606E-012
 -1.730000000000000E-002   -9.329498224207885E-013
 -1.720000000000000E-002   -3.519923879050973E-013
 -1.710000000000000E-002    2.392292499259999E-013
 -1.700000000000000E-002    7.933481151455222E-013
 -1.690000000000000E-002    1.266530808155384E-012
 -1.680000000000000E-002    1.623406630858915E-012
 -1.670000000000000E-002    1.841342373729024E-012
 -1.660000000000000E-002    1.913506756846985E-012
 -1.650000000000000E-002    1.850257656374575E-012
 -1.640000000000000E-002    1.678548214518555E-012
 -1.630000000000000E-002    1.439249679889413E-012
 -1.620000000000000E-002    1.182533472453820E-012
 -1.610000000000000E-002    9.617092823535043E-013
 -1.600000000000000E-002    8.261285922648393E-013
 -1.590000000000000E-002    8.139490271493836E-013
 -1.580000000000000E-002    9.456467573381796E-013
 -1.570000000000000E-002    1.219160540614839E-012
 -1.560000000000000E-002    1.607446374035616E-012
 -1.550000000000000E-002    2.059002265246304E-012
 -1.540000000000000E-002    2.501624849577330E-012
 -1.530000000000000E-002    2.849288818782118E-012
 -1.520000000000000E-002    3.011648889147123E-012
 -1.510000000000000E-002    2.905293824267329E-012
 -1.500000000000000E-002    2.465574615776176E-012
 -1.490000000000000E-002    1.657633779285699E-012
 -1.480000000000000E-002    4.852101591204898E-013
 -1.470000000000000E-002   -1.004094518087251E-012
 -1.460000000000000E-002   -2.718114297841722E-012
 -1.450000000000000E-002   -4.524585884163020E-012
 -1.440000000000000E-002   -6.260838898521052E-012
 -1.430000000000000E-002   -7.748140903576543E-012
 -1.420000000000000E-002   -8.809558028515745E-012
 -1.410000000000000E-002   -9.289626960964208E-012
 -1.400000000000000E-002   -9.073790779700839E-012
 -1.390000000000000E-002   -8.105343444017431E-012
 -1.380000000000000E-002   -6.397727156267414E-012
 -1.370000000000000E-002   -4.040341378159826E-012
 -1.360000000000000E-002   -1.196581622619232E-012
 -1.350000000000000E-002    1.906368541803026E-012
 -1.340000000000000E-002    4.995602829131996E-012
 -1.330000000000000E-002    7.777087569915445E-012
 -1.320000000000000E-002    9.964597868282323E-012
 -1.310000000000000E-002    1.131013680259489E-011
 -1.300000000000000E-002    1.163260019798066E-011
 -1.290000000000000E-002    1.084135192777539E-011
 -1.280000000000000E-002    8.951744849099523E-012
 -1.270000000000000E-002    6.090275699661681E-012
 -1.260000000000000E-002    2.488099784762025E-012
 -1.250000000000000E-002   -1.537147489717431E-012
 -1.240000000000000E-002   -5.609941021604207E-012
 -1.230000000000000E-002   -9.333328620990554E-012
 -1.220000000000000E-002   -1.232959918157068E-011
 -1.210000000000000E-002   -1.428086150694322E-011
 -1.200000000000000E-002   -1.496488556614041E-011
 -1.190000000000000E-002   -1.428186141815327E-011
 -1.180000000000000E-002   -1.226853224249174E-011
 -1.170000000000000E-002   -9.097384248951227E-012
 -1.160000000000000E-002   -5.060230264666529E-012
 -1.150000000000000E-002   -5.372808753850180E-013
 -1.140000000000000E-002    4.045351933252645E-012
 -1.130000000000000E-002    8.265253351019021E-012
 -1.120000000000000E-002    1.175479913260355E-011
 -1.110000000000000E-002    1.424760117697054E-011
 -1.100000000000000E-002    1.561431308123350E-011
 -1.090000000000000E-002    1.588273934686941E-011
 -1.080000000000000E-002    1.523871862706525E-011
 -1.070000000000000E-002    1.400634557785078E-011
 -1.060000000000000E-002    1.260858620987021E-011
 -1.050000000000000E-002    1.151168355804139E-011
 -1.040000000000000E-002    1.115906870847159E-011
 -1.030000000000000E-002    1.190214152730088E-011
 -1.020000000000000E-002    1.393622984629060E-011
 -1.010000000000000E-002    1.725004975377647E-011
 -1.000000000000000E-002    2.159597563626034E-011
 -9.899999999999999E-003    2.648660739093991E-011
 -9.800000000000000E-003    3.122030454533368E-011
 -9.699999999999999E-003    3.493533115513695E-011
 -9.599999999999999E-003    3.668875374480463E-011
 -9.500000000000000E-003    3.555323487902772E-011
 -9.399999999999999E-003    3.072225474588497E-011
 -9.299999999999999E-003    2.161275859598807E-011
 -9.200000000000000E-003    7.953808729920408E-012
 -9.099999999999999E-003   -1.014936060997993E-011
 -8.999999999999999E-003   -3.218433457466841E-011
 -8.900000000000000E-003   -5.723872282129742E-011
 -8.799999999999999E-003   -8.404696952063146E-011
 -8.699999999999999E-003   -1.110736256006918E-010
 -8.600000000000000E-003   -1.366258962500225E-010
 -8.499999999999999E-003   -1.589848035727956E-010
 -8.399999999999999E-003   -1.765416485415860E-010
 -8.300000000000000E-003   -1.879256834906141E-010
 -8.199999999999999E-003   -1.921091462334396E-010
 -8.100000000000000E-003   -1.884782271154072E-010
 -8.000000000000000E-003   -1.768620220301037E-010
 -7.899999999999999E-003   -1.575162132719707E-010
 -7.800000000000000E-003   -1.310632938776896E-010
 -7.699999999999999E-003   -9.839676722861225E-011
 -7.599999999999999E-003   -6.056087057320635E-011
 -7.499999999999999E-003   -1.862108860649996E-011
 -7.399999999999999E-003    2.645753016779453E-011
 -7.299999999999999E-003    7.390776395508504E-011
 -7.199999999999999E-003    1.232184809991576E-010
 -7.100000000000000E-003    1.741434400216043E-010
 -6.999999999999999E-003    2.266555382832660E-010
 -6.899999999999999E-003    2.808481722601784E-010
 -6.800000000000000E-003    3.367913456985271E-010
 -6.699999999999999E-003    3.943572233686314E-010
 -6.599999999999999E-003    4.530338006315441E-010
 -6.499999999999999E-003    5.117491196173548E-010
 -6.399999999999999E-003    5.687288664544336E-010
 -6.299999999999999E-003    6.214085521294458E-010
 -6.199999999999999E-003    6.664177625050292E-010
 -6.100000000000000E-003    6.996477070681352E-010
 -5.999999999999999E-003    7.164057482028882E-010
 -5.899999999999999E-003    7.116529505596951E-010
 -5.800000000000000E-003    6.803117009311723E-010
 -5.699999999999999E-003    6.176247460096146E-010
 -5.599999999999999E-003    5.195398317744123E-010
 -5.499999999999999E-003    3.830932397099613E-010
 -5.399999999999999E-003    2.067627767272863E-010
 -5.299999999999999E-003   -9.235859868603519E-012
 -5.199999999999999E-003   -2.627302227673886E-010
 -5.099999999999999E-003   -5.494663494739910E-010
 -4.999999999999999E-003   -8.630847095508648E-010
 -4.899999999999999E-003   -1.195197163570367E-009
 -4.799999999999999E-003   -1.535556905182228E-009
 -4.699999999999999E-003   -1.872307501789838E-009
 -4.599999999999999E-003   -2.192292464421856E-009
 -4.499999999999999E-003   -2.481406176835601E-009
 -4.399999999999999E-003   -2.724966741834284E-009
 -4.299999999999999E-003   -2.908094563317145E-009
 -4.199999999999999E-003   -3.016085192425926E-009
 -4.099999999999999E-003   -3.034773005377542E-009
 -3.999999999999999E-003   -2.950885773088308E-009
 -3.899999999999999E-003   -2.752400309031496E-009
 -3.799999999999999E-003   -2.428908454241175E-009
 -3.699999999999999E-003   -1.972013410875198E-009
 -3.599999999999999E-003   -1.375765271433987E-009
 -3.499999999999999E-003   -6.371524407353684E-010
 -3.399999999999999E-003    2.433503967044745E-010
 -3.299999999999999E-003    1.261177711946118E-009
 -3.199999999999999E-003    2.407029379505288E-009
 -3.099999999999999E-003    3.666215459104288E-009
 -2.999999999999999E-003    5.018024088148688E-009
 -2.899999999999999E-003    6.435164039516053E-009
 -2.799999999999999E-003    7.883342352703553E-009
 -2.699999999999999E-003    9.321036263928635E-009
 -2.599999999999999E-003    1.069952215375940E-008
 -2.499999999999999E-003    1.196323003407933E-008
 -2.399999999999999E-003    1.305047084752721E-008
 -2.299999999999999E-003    1.389457972430799E-008
 -2.199999999999999E-003    1.442550553825256E-008
 -2.099999999999999E-003    1.457185545123686E-008
 -1.999999999999999E-003    1.426337789240681E-008
 -1.899999999999999E-003    1.343386755619005E-008
 -1.799999999999999E-003    1.202442665077469E-008
 -1.699999999999999E-003    9.987033006118222E-009
 -1.599999999999999E-003    7.288331264369026E-009
 -1.499999999999999E-003    3.913546690053179E-009
 -1.399999999999999E-003   -1.295398231735981E-010
 -1.299999999999999E-003   -4.806687252090341E-009
 -1.199999999999999E-003   -1.005341133092750E-008
 -1.099999999999999E-003   -1.577142770459273E-008
 -9.999999999999989E-004   -2.182536868201137E-008
 -8.999999999999990E-004   -2.803984008309706E-008
 -7.999999999999990E-004   -3.419684408116754E-008
 -6.999999999999989E-004   -4.003358036455361E-008
 -5.999999999999990E-004   -4.524066181620436E-008
 -4.999999999999989E-004   -4.946070194108362E-008
 -3.999999999999989E-004   -5.228728674544610E-008
 -2.999999999999989E-004   -5.326429183432588E-008
 -1.999999999999989E-004   -5.188553365323878E-008
 -9.999999999999892E-005   -4.759473999013849E-008
  1.084202172485504E-018   -3.978585044828776E-008
  1.000000000000011E-004   -2.780353306784321E-008
  2.000000000000011E-004   -1.094409870429594E-008
  3.000000000000011E-004    1.154336789863777E-008
  4.000000000000011E-004    4.045554098627438E-008
  5.000000000000011E-004    7.663302374314123E-008
  6.000000000000011E-004    1.209582197032553E-007
  7.000000000000011E-004    1.743529254974615E-007
  8.000000000000011E-004    2.377754690404879E-007
  9.000000000000012E-004    3.122176990205621E-007
  1.000000000000001E-003    3.987016769301411E-007
  1.100000000000001E-003    4.982762135550321E-007
  1.200000000000001E-003    6.120131928371006E-007
  1.300000000000001E-003    7.410042755855513E-007
  1.400000000000001E-003    8.863573408915917E-007
  1.500000000000001E-003    1.049193289500801E-006
  1.600000000000001E-003    1.230643641642367E-006
  1.700000000000001E-003    1.431847980250764E-006
  1.800000000000001E-003    1.653952952229459E-006
  1.900000000000001E-003    1.898110950417519E-006
  2.000000000000001E-003    2.165480399809066E-006
  2.100000000000001E-003    2.457227084430408E-006
  2.200000000000001E-003    2.774525382047518E-006
  2.300000000000001E-003    3.118561373447673E-006
  2.400000000000001E-003    3.490536510374286E-006
  2.500000000000001E-003    3.891672231657664E-006
  2.600000000000001E-003    4.323214459148953E-006
  2.700000000000001E-003    4.786440754167768E-006
  2.800000000000001E-003    5.282667304707782E-006
  2.900000000000001E-003    5.813254608050294E-006
  3.000000000000001E-003    6.379617981164468E-006
  3.100000000000001E-003    6.983234423221926E-006
  3.200000000000001E-003    7.625653572044264E-006
  3.300000000000001E-003    8.308506512054137E-006
  3.400000000000001E-003    9.033517985512347E-006
  3.500000000000001E-003    9.802516120892994E-006
  3.600000000000001E-003    1.061744528218358E-005
  3.700000000000001E-003    1.148037744236257E-005
  3.800000000000001E-003    1.239352823259906E-005
  3.900000000000001E-003    1.335926767681137E-005
  4.000000000000001E-003    1.438013455415264E-005
  4.100000000000001E-003    1.545884946873354E-005
  4.200000000000001E-003    1.659833509691845E-005
  4.300000000000001E-003    1.780172172265839E-005
  4.400000000000001E-003    1.907236718139952E-005
  4.500000000000001E-003    2.041387062171307E-005
  4.600000000000002E-003    2.183008451172889E-005
  4.700000000000001E-003    2.332512864126960E-005
  4.800000000000001E-003    2.490340216651030E-005
  4.900000000000002E-003    2.656959829673399E-005
  5.000000000000001E-003    2.832871478035499E-005
  5.100000000000001E-003    3.018606331843111E-005
  5.200000000000001E-003    3.214728444831032E-005
  5.300000000000002E-003    3.421835438845192E-005
  5.400000000000001E-003    3.640559796210461E-005
  5.500000000000001E-003    3.871569838320969E-005
  5.600000000000002E-003    4.115570591062471E-005
  5.700000000000001E-003    4.373305111565290E-005
  5.800000000000001E-003    4.645554832552312E-005
  5.900000000000002E-003    4.933141859565889E-005
  6.000000000000001E-003    5.236928357996562E-005
  6.100000000000001E-003    5.557819178285233E-005
  6.200000000000002E-003    5.896762048885079E-005
  6.300000000000002E-003    6.254748787095012E-005
  6.400000000000001E-003    6.632817918543318E-005
  6.500000000000001E-003    7.032054463086427E-005
  6.600000000000002E-003    7.453592326067773E-005
  6.700000000000001E-003    7.898615134402071E-005
  6.800000000000001E-003    8.368359903804397E-005
  6.900000000000002E-003    8.864117382354533E-005
  7.000000000000001E-003    9.387235576349642E-005
  7.100000000000001E-003    9.939119925896492E-005
  7.200000000000002E-003    1.052123950200204E-004
  7.300000000000002E-003    1.113512679525080E-004
  7.400000000000001E-003    1.178238103953535E-004
  7.500000000000001E-003    1.246467333299936E-004
  7.600000000000002E-003    1.318374745792389E-004
  7.700000000000001E-003    1.394142522385826E-004
  7.800000000000001E-003    1.473960871187439E-004
  7.900000000000001E-003    1.558028388477724E-004
  8.000000000000002E-003    1.646552461752615E-004
  8.100000000000001E-003    1.739749627637458E-004
  8.200000000000001E-003    1.837845835680265E-004
  8.300000000000002E-003    1.941076957149577E-004
  8.400000000000001E-003    2.049688919119762E-004
  8.500000000000002E-003    2.163938593751602E-004
  8.600000000000002E-003    2.284093331859715E-004
  8.700000000000001E-003    2.410432029213824E-004
  8.800000000000002E-003    2.543245489903438E-004
  8.900000000000002E-003    2.682836530593108E-004
  9.000000000000001E-003    2.829520549110998E-004
  9.100000000000002E-003    2.983626108320222E-004
  9.200000000000002E-003    3.145495458975798E-004
  9.300000000000001E-003    3.315484650647711E-004
  9.400000000000002E-003    3.493964279637354E-004
  9.500000000000001E-003    3.681320338418695E-004
  9.600000000000001E-003    3.877954224161949E-004
  9.700000000000002E-003    4.084283851370244E-004
  9.800000000000001E-003    4.300743861608092E-004
  9.900000000000001E-003    4.527786030026147E-004
  1.000000000000000E-002    4.765879986887202E-004
  1.010000000000000E-002    5.015513655710454E-004
  1.020000000000000E-002    5.277193518348950E-004
  1.030000000000000E-002    5.551445612185926E-004
  1.040000000000000E-002    5.838815734745177E-004
  1.050000000000000E-002    6.139870056025503E-004
  1.060000000000000E-002    6.455195600694250E-004
  1.070000000000000E-002    6.785399827964916E-004
  1.080000000000000E-002    7.131112521183170E-004
  1.090000000000000E-002    7.492985475305853E-004
  1.100000000000000E-002    7.871693387080806E-004
  1.110000000000000E-002    8.267934742058343E-004
  1.120000000000000E-002    8.682431397814263E-004
  1.130000000000000E-002    9.115930420755517E-004
  1.140000000000000E-002    9.569203943541104E-004
  1.150000000000000E-002    1.004305079988979E-003
  1.160000000000000E-002    1.053829596950977E-003
  1.170000000000000E-002    1.105579295135088E-003
  1.180000000000000E-002    1.159642343405748E-003
  1.190000000000000E-002    1.216109879477387E-003
  1.200000000000000E-002    1.275075951926465E-003
  1.210000000000000E-002    1.336637710136159E-003
  1.220000000000000E-002    1.400895501797970E-003
  1.230000000000000E-002    1.467952949117935E-003
  1.240000000000000E-002    1.537916825906741E-003
  1.250000000000000E-002    1.610897260556954E-003
  1.260000000000000E-002    1.687007724042294E-003
  1.270000000000000E-002    1.766365338156925E-003
  1.280000000000000E-002    1.849090353414930E-003
  1.290000000000000E-002    1.935306725816011E-003
  1.300000000000000E-002    2.025141930927520E-003
  1.310000000000000E-002    2.118727054333747E-003
  1.320000000000000E-002    2.216196988784962E-003
  1.330000000000000E-002    2.317690102351660E-003
  1.340000000000000E-002    2.423348541902078E-003
  1.350000000000000E-002    2.533318427262801E-003
  1.360000000000000E-002    2.647749897271844E-003
  1.370000000000000E-002    2.766796714031973E-003
  1.380000000000000E-002    2.890616792679034E-003
  1.390000000000000E-002    3.019372467458558E-003
  1.400000000000000E-002    3.153229852711844E-003
  1.410000000000000E-002    3.292359485429055E-003
  1.420000000000000E-002    3.436936052111387E-003
  1.430000000000000E-002    3.587138857886859E-003
  1.440000000000000E-002    3.743151324993690E-003
  1.450000000000000E-002    3.905161195506611E-003
  1.460000000000000E-002    4.073360919769161E-003
  1.470000000000000E-002    4.247947154779198E-003
  1.480000000000000E-002    4.429120969639607E-003
  1.490000000000000E-002    4.617087633936640E-003
  1.500000000000000E-002    4.812057202028467E-003
  1.510000000000000E-002    5.014243594847092E-003
  1.520000000000000E-002    5.223865153779781E-003
  1.530000000000000E-002    5.441144654645117E-003
  1.540000000000000E-002    5.666308908451872E-003
  1.550000000000000E-002    5.899589165727433E-003
  1.560000000000000E-002    6.141220601662325E-003
  1.570000000000000E-002    6.391442428445918E-003
  1.580000000000000E-002    6.650498232940063E-003
  1.590000000000000E-002    6.918636252502897E-003
  1.600000000000000E-002    7.196107577248241E-003
  1.610000000000000E-002    7.483167749563418E-003
  1.620000000000000E-002    7.780077455315774E-003
  1.630000000000000E-002    8.087099769891354E-003
  1.640000000000000E-002    8.404502439554113E-003
  1.650000000000000E-002    8.732556816246274E-003
  1.660000000000000E-002    9.071537841670769E-003
  1.670000000000000E-002    9.421724200191543E-003
  1.680000000000000E-002    9.783398498990695E-003
  1.690000000000000E-002    1.015684576699743E-002
  1.700000000000000E-002    1.054235319086158E-002
  1.710000000000000E-002    1.094021317314966E-002
  1.720000000000000E-002    1.135071857820475E-002
  1.730000000000000E-002    1.177416596631174E-002
  1.740000000000000E-002    1.221085304171210E-002
  1.750000000000000E-002    1.266107974091937E-002
  1.760000000000000E-002    1.312514835371258E-002
  1.770000000000000E-002    1.360336284145107E-002
  1.780000000000000E-002    1.409602664560211E-002
  1.790000000000000E-002    1.460344503639338E-002
  1.800000000000000E-002    1.512592407252356E-002
  1.810000000000000E-002    1.566377113690150E-002
  1.820000000000000E-002    1.621729297733477E-002
  1.830000000000000E-002    1.678679658086684E-002
  1.840000000000000E-002    1.737258874609861E-002
  1.850000000000000E-002    1.797497554775633E-002
  1.860000000000000E-002    1.859426183138803E-002
  1.870000000000000E-002    1.923075058034754E-002