 -4.000000000000000E-002    0.000000000000000E+000
 -3.990000000000000E-002    0.000000000000000E+000
 -3.980000000000000E-002    0.000000000000000E+000
 -3.970000000000000E-002    0.000000000000000E+000
 -3.960000000000000E-002    2.238458214210490E-017
 -3.950000000000000E-002    1.912020724986667E-016
 -3.940000000000000E-002    8.956392708759993E-016
 -3.930000000000000E-002    3.034895041854678E-015
 -3.920000000000000E-002    8.292458413909600E-015
 -3.910000000000000E-002    1.933088965098671E-014
 -3.900000000000000E-002    3.975094468840737E-014
 -3.890000000000000E-002    7.364130520068720E-014
 -3.880000000000000E-002    1.245750596913034E-013
 -3.870000000000000E-002    1.939967107262516E-013
 -3.860000000000000E-002    2.790870321947946E-013
 -3.850000000000000E-002    3.703752590347488E-013
 -3.840000000000000E-002    4.495561266040888E-013
 -3.830000000000000E-002    4.881191912656674E-013
 -3.820000000000000E-002    4.474608810900063E-013
 -3.810000000000000E-002    2.810830812042642E-013
 -3.800000000000000E-002   -6.073889803372390E-014
 -3.790000000000000E-002   -6.238074209860700E-013
 -3.780000000000000E-002   -1.440845087879126E-012
 -3.770000000000000E-002   -2.521322595594091E-012
 -3.760000000000000E-002   -3.841723236620596E-012
 -3.750000000000000E-002   -5.337974706028428E-012
 -3.740000000000000E-002   -6.901773620987466E-012
 -3.730000000000000E-002   -8.382177279320730E-012
 -3.720000000000000E-002   -9.593131712109153E-012
 -3.710000000000000E-002   -1.032660390641857E-011
 -3.700000000000000E-002   -1.036986159724599E-011
 -3.690000000000000E-002   -9.524406630083228E-012
 -3.680000000000000E-002   -7.623333866508865E-012
 -3.670000000000000E-002   -4.543783449359112E-012
 -3.660000000000000E-002   -2.117455905296355E-013
 -3.650000000000000E-002    5.402086597252775E-012
 -3.640000000000000E-002    1.229460836286209E-011
 -3.630000000000000E-002    2.044742119798236E-011
 -3.620000000000000E-002    2.984296280612742E-011
 -3.610000000000000E-002    4.047201737826159E-011
 -3.600000000000000E-002    5.232426311710605E-011
 -3.590000000000000E-002    6.535463653282521E-011
 -3.580000000000000E-002    7.942118387623113E-011
 -3.570000000000000E-002    9.419510800511089E-011
 -3.560000000000000E-002    1.090501717974890E-010
 -3.550000000000000E-002    1.229456135958409E-010
 -3.540000000000000E-002    1.343235122485607E-010
 -3.530000000000000E-002    1.410462785739941E-010
 -3.520000000000000E-002    1.404015411079934E-010
 -3.510000000000000E-002    1.291991782678804E-010
 -3.500000000000000E-002    1.039775435590239E-010
 -3.490000000000000E-002    6.132388420768433E-011
 -3.480000000000000E-002   -1.702014417338807E-012
 -3.470000000000000E-002   -8.707008632813149E-011
 -3.460000000000000E-002   -1.952547794943103E-010
 -3.450000000000000E-002   -3.247431571489933E-010
 -3.440000000000000E-002   -4.716456856654230E-010
 -3.430000000000000E-002   -6.294783807995035E-010
 -3.420000000000000E-002   -7.891752755632766E-010
 -3.410000000000000E-002   -9.393703489697316E-010
 -3.400000000000000E-002   -1.066958866709289E-009
 -3.390000000000000E-002   -1.157915711282382E-009
 -3.380000000000000E-002   -1.198311549954617E-009
 -3.370000000000000E-002   -1.175438356587428E-009
 -3.360000000000000E-002   -1.078931874432597E-009
 -3.350000000000000E-002   -9.017718109429539E-010
 -3.340000000000000E-002   -6.410460805511415E-010
 -3.330000000000000E-002   -2.983912436130361E-010
 -3.320000000000000E-002    1.199405016635987E-010
 -3.310000000000000E-002    6.033878183879988E-010
 -3.300000000000000E-002    1.137706772257317E-009
 -3.290000000000000E-002    1.705816276024701E-009
 -3.280000000000000E-002    2.288723784247461E-009
 -3.270000000000000E-002    2.866381657463435E-009
 -3.260000000000000E-002    3.418327673296178E-009
 -3.250000000000000E-002    3.924006247271682E-009
 -3.240000000000000E-002    4.362721346143081E-009
 -3.230000000000000E-002    4.713253491559002E-009
 -3.220000000000000E-002    4.953251130812927E-009
 -3.210000000000000E-002    5.058587700759913E-009
 -3.200000000000000E-002    5.002925326778320E-009
 -3.190000000000000E-002    4.757752158743931E-009
 -3.180000000000000E-002    4.293137900602294E-009
 -3.170000000000000E-002    3.579386834359562E-009
 -3.160000000000000E-002    2.589659355521946E-009
 -3.150000000000000E-002    1.303492674220723E-009
 -3.140000000000000E-002   -2.890050574120443E-010
 -3.130000000000000E-002   -2.182665201433969E-009
 -3.120000000000000E-002   -4.352972622818368E-009
 -3.110000000000000E-002   -6.752567145952172E-009
 -3.100000000000000E-002   -9.309110463452295E-009
 -3.090000000000000E-002   -1.192504562478599E-008
 -3.080000000000000E-002   -1.447961572214391E-008
 -3.070000000000000E-002   -1.683331760584150E-008
 -3.060000000000000E-002   -1.883468884762399E-008
 -3.050000000000000E-002   -2.032908017053431E-008
 -3.040000000000000E-002   -2.116878067097009E-008
 -3.030000000000000E-002   -2.122368817838941E-008
 -3.020000000000000E-002   -2.039157657582719E-008
 -3.010000000000000E-002   -1.860699158211432E-008
 -3.000000000000000E-002   -1.584789941057029E-008
 -2.990000000000000E-002   -1.213942985321343E-008
 -2.980000000000000E-002   -7.554303384343701E-009
 -2.970000000000000E-002   -2.209917364016678E-009
 -2.960000000000000E-002    3.737611510198131E-009
 -2.950000000000000E-002    1.010180872601490E-008
 -2.940000000000000E-002    1.667571898342702E-008
 -2.930000000000000E-002    2.324228645602788E-008
 -2.920000000000000E-002    2.958419712340739E-008
 -2.910000000000000E-002    3.549228387681965E-008
 -2.900000000000000E-002    4.077182640061320E-008
 -2.890000000000000E-002    4.524644705021865E-008
 -2.880000000000000E-002    4.875963067745107E-008
 -2.870000000000000E-002    5.117435841849738E-008
 -2.860000000000000E-002    5.237150216090000E-008
 -2.850000000000000E-002    5.224801188175884E-008
 -2.840000000000000E-002    5.071579613989446E-008
 -2.830000000000000E-002    4.770222386910025E-008
 -2.820000000000000E-002    4.315283708571568E-008
 -2.810000000000000E-002    3.703653313893253E-008
 -2.800000000000000E-002    2.935302180653748E-008
 -2.790000000000000E-002    2.014188794496882E-008
 -2.780000000000000E-002    9.492218768154460E-009
 -2.770000000000000E-002   -2.448501131984095E-009
 -2.760000000000000E-002   -1.546770014038753E-008
 -2.750000000000000E-002   -2.928458682773769E-008
 -2.740000000000000E-002   -4.355162055992240E-008
 -2.730000000000000E-002   -5.786135981136695E-008
 -2.720000000000000E-002   -7.175865240359113E-008
 -2.710000000000000E-002   -8.475783964490785E-008
 -2.700000000000000E-002   -9.636386429838460E-008
 -2.690000000000000E-002   -1.060957787772620E-007
 -2.680000000000000E-002   -1.135108840838833E-007
 -2.670000000000000E-002   -1.182275683812159E-007
 -2.660000000000000E-002   -1.199450831075797E-007
 -2.650000000000000E-002   -1.184587655735748E-007
 -2.640000000000000E-002   -1.136697101354437E-007
 -2.630000000000000E-002   -1.055885031616977E-007
 -2.620000000000000E-002   -9.433313584182538E-008
 -2.610000000000000E-002   -8.012185658264833E-008
 -2.600000000000000E-002   -6.326198265333173E-008
 -2.590000000000000E-002   -4.413608243960979E-008
 -2.580000000000000E-002   -2.318683711762704E-008
 -2.570000000000000E-002   -9.017958164070707E-010
 -2.560000000000000E-002    2.220106046718556E-008
 -2.550000000000000E-002    4.558652145690202E-008
 -2.540000000000000E-002    6.871399740295878E-008
 -2.530000000000000E-002    9.104840320964480E-008
 -2.520000000000000E-002    1.120706528494235E-007
 -2.510000000000000E-002    1.312883257911099E-007
 -2.500000000000000E-002    1.482473435020426E-007
 -2.490000000000000E-002    1.625446618307264E-007
 -2.480000000000000E-002    1.738421703870857E-007
 -2.470000000000000E-002    1.818811462014327E-007
 -2.460000000000000E-002    1.864963267286943E-007
 -2.450000000000000E-002    1.876282519366888E-007
 -2.440000000000000E-002    1.853324982919930E-007
 -2.430000000000000E-002    1.797842826036201E-007
 -2.420000000000000E-002    1.712773578228707E-007
 -2.410000000000000E-002    1.602164441884852E-007
 -2.400000000000000E-002    1.471032564347627E-007
 -2.390000000000000E-002    1.325168114562347E-007
 -2.380000000000000E-002    1.170893748878778E-007
 -2.370000000000000E-002    1.014800905145060E-007
 -2.360000000000000E-002    8.634852937797943E-008
 -2.350000000000000E-002    7.233071014251412E-008
 -2.340000000000000E-002    6.001969843117178E-008
 -2.330000000000000E-002    4.995264961432457E-008
 -2.320000000000000E-002    4.260516010769379E-008
 -2.310000000000000E-002    3.839325809511055E-008
 -2.300000000000000E-002    3.768214682224258E-008
 -2.290000000000000E-002    4.080040188241718E-008
 -2.280000000000000E-002    4.805739790570793E-008
 -2.270000000000000E-002    5.976154514432087E-008
 -2.260000000000000E-002    7.623703534289942E-008
 -2.250000000000000E-002    9.783700709604867E-008
 -2.240000000000000E-002    1.249517354507526E-007
 -2.230000000000000E-002    1.580109852897768E-007
 -2.220000000000000E-002    1.974811022797028E-007
 -2.210000000000000E-002    2.438575234857581E-007
 -2.200000000000000E-002    2.976548445106168E-007
 -2.190000000000000E-002    3.593961028522736E-007
 -2.180000000000000E-002    4.296039742423103E-007
 -2.170000000000000E-002    5.087954754427256E-007
 -2.160000000000000E-002    5.974822378122716E-007
 -2.150000000000000E-002    6.961763082336995E-007
 -2.140000000000000E-002    8.054023932912485E-007
 -2.130000000000000E-002    9.257144063234332E-007
 -2.120000000000000E-002    1.057715731129628E-006
 -2.110000000000000E-002    1.202080310567902E-006
 -2.100000000000000E-002    1.359572110860158E-006
 -2.090000000000000E-002    1.531061144752017E-006
 -2.080000000000000E-002    1.717532852770429E-006
 -2.070000000000000E-002    1.920090644870150E-006
 -2.060000000000000E-002    2.139949440081143E-006
 -2.050000000000000E-002    2.378420725388191E-006
 -2.040000000000000E-002    2.636891097028640E-006
 -2.030000000000000E-002    2.916791537043767E-006
 -2.020000000000000E-002    3.219564289141996E-006
 -2.010000000000000E-002    3.546624772152929E-006
 -2.000000000000000E-002    3.899323206855257E-006
 -1.990000000000000E-002    4.278905618087531E-006
 -1.980000000000000E-002    4.686479705577885E-006
 -1.970000000000000E-002    5.122982194148669E-006
 -1.960000000000000E-002    5.589153405549776E-006
 -1.950000000000000E-002    6.085519452904028E-006
 -1.940000000000000E-002    6.612382488257738E-006
 -1.930000000000000E-002    7.169824506620828E-006
 -1.920000000000000E-002    7.757720936209477E-006
 -1.910000000000000E-002    8.375771326296217E-006
 -1.900000000000000E-002    9.023545486868012E-006
 -1.890000000000000E-002    9.700544257480533E-006
 -1.880000000000000E-002    1.040627758986574E-005
 -1.870000000000000E-002    1.114035522796456E-005
 -1.860000000000000E-002    1.190258968096850E-005
 -1.850000000000000E-002    1.269310571020620E-005
 -1.840000000000000E-002    1.351244530130554E-005
 -1.830000000000000E-002    1.436167026201814E-005
 -1.820000000000000E-002    1.524244522852876E-005
 -1.810000000000000E-002    1.615710621193866E-005
 -1.800000000000000E-002    1.710869678030525E-005
 -1.790000000000000E-002    1.810097109110353E-005
 -1.780000000000000E-002    1.913837176762485E-005
 -1.770000000000000E-002    2.022597122261055E-005
 -1.760000000000000E-002    2.136939163730313E-005
 -1.750000000000000E-002    2.257469886764102E-005
 -1.740000000000000E-002    2.384830270898432E-005
 -1.730000000000000E-002    2.519684557893171E-005
 -1.720000000000000E-002    2.662711169989775E-005
 -1.710000000000000E-002    2.814596189068261E-005
 -1.700000000000000E-002    2.976029576072226E-005
 -1.690000000000000E-002    3.147705926550137E-005
 -1.680000000000000E-002    3.330328120356104E-005
 -1.670000000000000E-002    3.524615126256707E-005
 -1.660000000000000E-002    3.731312447311405E-005
 -1.650000000000000E-002    3.951203103543133E-005
 -1.640000000000000E-002    4.185121216770818E-005
 -1.630000000000000E-002    4.433963373219316E-005
 -1.620000000000000E-002    4.698697748806383E-005
 -1.610000000000000E-002    4.980370703480012E-005
 -1.600000000000000E-002    5.280109817814423E-005
 -1.590000000000000E-002    5.599121725228988E-005
 -1.580000000000000E-002    5.938687677058772E-005
 -1.570000000000000E-002    6.300155375868115E-005
 -1.560000000000000E-002    6.684927704702390E-005
 -1.550000000000000E-002    7.094452610581251E-005
 -1.540000000000000E-002    7.530210260734782E-005
 -1.530000000000000E-002    7.993706716810717E-005
 -1.520000000000000E-002    8.486464368783896E-005
 -1.510000000000000E-002    9.010021124236191E-005
 -1.500000000000000E-002    9.565930641162250E-005
 -1.490000000000000E-002    1.015576790564450E-004
 -1.480000000000000E-002    1.078113794184475E-004
 -1.470000000000000E-002    1.144368456167710E-004
 -1.460000000000000E-002    1.214510546660907E-004
 -1.450000000000000E-002    1.288716217256730E-004
 -1.440000000000000E-002    1.367169491990927E-004
 -1.430000000000000E-002    1.450062857830125E-004
 -1.420000000000000E-002    1.537598606288046E-004
 -1.410000000000000E-002    1.629989029226773E-004
 -1.400000000000000E-002    1.727456795819871E-004
 -1.390000000000000E-002    1.830234889712484E-004
 -1.380000000000000E-002    1.938566645663025E-004
 -1.370000000000000E-002    2.052705124175926E-004
 -1.360000000000000E-002    2.172913115442084E-004
 -1.350000000000000E-002    2.299462887766549E-004
 -1.340000000000000E-002    2.432635810949329E-004
 -1.330000000000000E-002    2.572722044610565E-004
 -1.320000000000000E-002    2.720020912166303E-004
 -1.310000000000000E-002    2.874840476779339E-004
 -1.300000000000000E-002    3.037498290592666E-004
 -1.290000000000000E-002    3.208321687628117E-004
 -1.280000000000000E-002    3.387647135955050E-004
 -1.270000000000000E-002    3.575822236471791E-004
 -1.260000000000000E-002    3.773204615827972E-004
 -1.250000000000000E-002    3.980163043159924E-004
 -1.240000000000000E-002    4.197078162195868E-004
 -1.230000000000000E-002    4.424343100329291E-004
 -1.220000000000000E-002    4.662364645910364E-004
 -1.210000000000000E-002    4.911564326744167E-004
 -1.200000000000000E-002    5.172379766437276E-004
 -1.190000000000000E-002    5.445266383553154E-004
 -1.180000000000000E-002    5.730699384123214E-004
 -1.170000000000000E-002    6.029176214207093E-004
 -1.160000000000000E-002    6.341218730043236E-004
 -1.150000000000000E-002    6.667374676556520E-004
 -1.140000000000000E-002    7.008220222956307E-004
 -1.130000000000000E-002    7.364362074394024E-004
 -1.120000000000000E-002    7.736437753380840E-004
 -1.110000000000000E-002    8.125118220367445E-004
 -1.100000000000000E-002    8.531107642816229E-004
 -1.090000000000000E-002    8.955142722952190E-004
 -1.080000000000000E-002    9.397994349754114E-004
 -1.070000000000000E-002    9.860466706948547E-004
 -1.060000000000000E-002    1.034339564068355E-003
 -1.050000000000000E-002    1.084765034780584E-003
 -1.040000000000000E-002    1.137413237859055E-003
 -1.030000000000000E-002    1.192377352581103E-003
 -1.020000000000000E-002    1.249753910599910E-003
 -1.010000000000000E-002    1.309642869308205E-003
 -1.000000000000000E-002    1.372147356423582E-003
 -9.899999999999999E-003    1.437374063960519E-003
 -9.800000000000000E-003    1.505433479851126E-003
 -9.699999999999999E-003    1.576439736976758E-003
 -9.599999999999999E-003    1.650511132887310E-003
 -9.500000000000000E-003    1.727769904701017E-003
 -9.399999999999999E-003    1.808342665454494E-003
 -9.299999999999999E-003    1.892360371647110E-003
 -9.200000000000000E-003    1.979958526603083E-003
 -9.099999999999999E-003    2.071276755957537E-003
 -8.999999999999999E-003    2.166459525590444E-003
 -8.900000000000000E-003    2.265655913530379E-003
 -8.799999999999999E-003    2.369019196552205E-003
 -8.699999999999999E-003    2.476707431856945E-003
 -8.600000000000000E-003    2.588883244405218E-003
 -8.499999999999999E-003    2.705714030353278E-003
 -8.399999999999999E-003    2.827371867811701E-003
 -8.300000000000000E-003    2.954033745855165E-003
 -8.199999999999999E-003    3.085881582674999E-003
 -8.100000000000000E-003    3.223102646727502E-003
 -8.000000000000000E-003    3.365889264483064E-003
 -7.899999999999999E-003    3.514439767131301E-003
 -7.800000000000000E-003    3.668957912388084E-003
 -7.699999999999999E-003    3.829653359049056E-003
 -7.599999999999999E-003    3.996742123287367E-003
 -7.499999999999999E-003    4.170445938621712E-003
 -7.399999999999999E-003    4.350993111963818E-003
 -7.299999999999999E-003    4.538618158332836E-003
 -7.199999999999999E-003    4.733561983890642E-003
 -7.100000000000000E-003    4.936072086506317E-003
 -6.999999999999999E-003    5.146401913533874E-003
 -6.899999999999999E-003    5.364811826037127E-003
 -6.800000000000000E-003    5.591567864981428E-003
 -6.699999999999999E-003    5.826943164634698E-003
 -6.599999999999999E-003    6.071216785035677E-003
 -6.499999999999999E-003    6.324674472035983E-003
 -6.399999999999999E-003    6.587608277966132E-003
 -6.299999999999999E-003    6.860315846395175E-003
 -6.199999999999999E-003    7.143102413470807E-003
 -6.100000000000000E-003    7.436279260124049E-003
 -5.999999999999999E-003    7.740164107750656E-003
 -5.899999999999999E-003    8.055081884787527E-003
 -5.800000000000000E-003    8.381364021729672E-003
 -5.699999999999999E-003    8.719348848573181E-003
 -5.599999999999999E-003    9.069381535165321E-003
 -5.499999999999999E-003    9.431815269071081E-003
 -5.399999999999999E-003    9.807009821168515E-003
 -5.299999999999999E-003    1.019533302924452E-002
 -5.199999999999999E-003    1.059715894737148E-002
 -5.099999999999999E-003    1.101287098488026E-002
 -4.999999999999999E-003    1.144285729306176E-002
 -4.899999999999999E-003    1.188751565491795E-002
 -4.799999999999999E-003    1.234724924565279E-002
 -4.699999999999999E-003    1.282246958225096E-002
 -4.599999999999999E-003    1.331359375933220E-002
 -4.499999999999999E-003    1.382104576117998E-002
 -4.399999999999999E-003    1.434525605973356E-002
 -4.299999999999999E-003    1.488666189384611E-002
 -4.199999999999999E-003    1.544570587081921E-002
 -4.099999999999999E-003    1.602283801764482E-002
 -3.999999999999999E-003    1.661851476153733E-002
 -3.899999999999999E-003    1.723319587826321E-002
 -3.799999999999999E-003    1.786735021004730E-002
 -3.699999999999999E-003    1.852145160613119E-002
 -3.599999999999999E-003    1.919597765060120E-002
 -3.499999999999999E-003    1.989141461195549E-002
 -3.399999999999999E-003    2.060825169252199E-002
 -3.299999999999999E-003    2.134698378063500E-002
 -3.199999999999999E-003    2.210811016559414E-002
 -3.099999999999999E-003    2.289213373819816E-002
 -2.999999999999999E-003    2.369956295077407E-002
 -2.899999999999999E-003    2.453090614599009E-002
 -2.799999999999999E-003    2.538667601296892E-002
 -2.699999999999999E-003    2.626738240508188E-002
 -2.599999999999999E-003    2.717354282871856E-002
 -2.499999999999999E-003    2.810566984847244E-002
 -2.399999999999999E-003    2.906428005123990E-002
 -2.299999999999999E-003    3.004988660002877E-002
 -2.199999999999999E-003    3.106300221446703E-002
 -2.099999999999999E-003    3.210413830933253E-002
 -1.999999999999999E-003    3.317380629039407E-002
 -1.899999999999999E-003    3.427251365701877E-002
 -1.799999999999999E-003    3.540076254879451E-002
 -1.699999999999999E-003    3.655905444591722E-002
 -1.599999999999999E-003    3.774788542998215E-002
 -1.499999999999999E-003    3.896774607248121E-002
 -1.399999999999999E-003    4.021912147790613E-002
 -1.299999999999999E-003    4.150248848084431E-002
 -1.199999999999999E-003    4.281831608879278E-002
 -1.099999999999999E-003    4.416706468591920E-002
 -9.999999999999989E-004    4.554918656589645E-002
 -8.999999999999990E-004    4.696512361272664E-002
 -7.999999999999990E-004    4.841530342381421E-002
 -6.999999999999989E-004    4.990014165065222E-002
 -5.999999999999990E-004    5.142003950988040E-002
 -4.999999999999989E-004    5.297538586041215E-002
 -3.999999999999989E-004    5.456655942604564E-002
 -2.999999999999989E-004    5.619390969137299E-002
 -1.999999999999989E-004    5.785777906692705E-002
 -9.999999999999892E-005    5.955848963983303E-002
  1.084202172485504E-018    6.129633474748395E-002
  1.000000000000011E-004    6.307160139833093E-002
  2.000000000000011E-004    6.488453718209385E-002
  3.000000000000011E-004    6.673537339528296E-002
  4.000000000000011E-004    6.862430881475601E-002
  5.000000000000011E-004    7.055151760910239E-002
  6.000000000000011E-004    7.251714286060501E-002
  7.000000000000011E-004    7.452129310465393E-002
  8.000000000000011E-004    7.656404209738624E-002
  9.000000000000012E-004    7.864543219451835E-002
  1.000000000000001E-003    8.076546478811235E-002
  1.100000000000001E-003    8.292410025988070E-002
  1.200000000000001E-003    8.512126924464768E-002
  1.300000000000001E-003    8.735685396534142E-002
  1.400000000000001E-003    8.963069858816980E-002
  1.500000000000001E-003    9.194259352516218E-002
  1.600000000000001E-003    9.429229493037483E-002
  1.700000000000001E-003    9.667950367488459E-002
  1.800000000000001E-003    9.910387560630278E-002
  1.900000000000001E-003    0.101565005433067     
  2.000000000000001E-003    0.104062449124477     
  2.100000000000001E-003    0.106595689110412     
  2.200000000000001E-003    0.109164161543163     
  2.300000000000001E-003    0.111767232542160     
  2.400000000000001E-003    0.114404214279869     
  2.500000000000001E-003    0.117074336001305     
  2.600000000000001E-003    0.119776769230115     
  2.700000000000001E-003    0.122510607187817     
  2.800000000000001E-003    0.125274890931525     
  2.900000000000001E-003    0.128068561890005     
  3.000000000000001E-003    0.130890503145633     
  3.100000000000001E-003    0.133739511483500     
  3.200000000000001E-003    0.136614320118978     
  3.300000000000001E-003    0.139513562309402     
  3.400000000000001E-003    0.142435798826644     
  3.500000000000001E-003    0.145379494246402     
  3.600000000000001E-003    0.148343051656996     
  3.700000000000001E-003    0.151324756159472     
  3.800000000000001E-003    0.154322811761918     
  3.900000000000001E-003    0.157335323081040     
  4.000000000000001E-003    0.160360292364863     
  4.100000000000001E-003    0.163395628740055     
  4.200000000000001E-003    0.166439140241344     
  4.300000000000001E-003    0.169488520433129     
  4.400000000000001E-003    0.172541370261114     
  4.500000000000001E-003    0.175595157739572     
  4.600000000000002E-003    0.178647272152571     
  4.700000000000001E-003    0.181694975316214     
  4.800000000000001E-003    0.184735403963246     
  4.900000000000002E-003    0.187765608905161     
  5.000000000000001E-003    0.190782508365760     
  5.100000000000001E-003    0.193782909122367     
  5.200000000000001E-003    0.196763507211845     
  5.300000000000002E-003    0.199720872218160     
  5.400000000000001E-003    0.202651448640207     
  5.500000000000001E-003    0.205551580265577     
  5.600000000000002E-003    0.208417470123466     
  5.700000000000001E-003    0.211245204019559     
  5.800000000000001E-003    0.214030742249191     
  5.900000000000002E-003    0.216769926229670     
  6.000000000000001E-003    0.219458450091925     
  6.100000000000001E-003    0.222091895820611     
  6.200000000000002E-003    0.224665719397081     
  6.300000000000002E-003    0.227175259570937     
  6.400000000000001E-003    0.229615708102755     
  6.500000000000001E-003    0.231982135996825     
  6.600000000000002E-003    0.234269505555050     
  6.700000000000001E-003    0.236472633740831     
  6.800000000000001E-003    0.238586234118446     
  6.900000000000002E-003    0.240604889280192     
  7.000000000000001E-003    0.242523064114407     
  7.100000000000001E-003    0.244335097223735     
  7.200000000000002E-003    0.246035215956390     
  7.300000000000002E-003    0.247617520453547     
  7.400000000000001E-003    0.249076006433630     
  7.500000000000001E-003    0.250404544765794     
  7.600000000000002E-003    0.251596891891442     
  7.700000000000001E-003    0.252646713417893     
  7.800000000000001E-003    0.253547553808661     
  7.900000000000001E-003    0.254292845568208     
  8.000000000000002E-003    0.254875948848110     
  8.100000000000001E-003    0.255290088553004     
  8.200000000000001E-003    0.255528424961982     
  8.300000000000002E-003    0.255584015651336     
  8.400000000000001E-003    0.255449865331016     
  8.500000000000002E-003    0.255118837376802     
  8.600000000000002E-003    0.254583801945864     
  8.700000000000001E-003    0.253837509442070     
  8.800000000000002E-003    0.252872622765911     
  8.900000000000002E-003    0.251681808515104     
  9.000000000000001E-003    0.250257659104632     
  9.100000000000002E-003    0.248592712923025     
  9.200000000000002E-003    0.246679459695510     
  9.300000000000001E-003    0.244510382476129     
  9.400000000000002E-003    0.242077914506113     
  9.500000000000001E-003    0.239374482517965     
  9.600000000000001E-003    0.236392490448853     
  9.700000000000002E-003    0.233124359099829     
  9.800000000000001E-003    0.229562501724200     
  9.900000000000001E-003    0.225699341945176     
  1.000000000000000E-002    0.221527308920962     
  1.010000000000000E-002    0.217038904340066     
  1.020000000000000E-002    0.212226650579332     
  1.030000000000000E-002    0.207083130799696     
  1.040000000000000E-002    0.201600951757763     
  1.050000000000000E-002    0.195772833064166     
  1.060000000000000E-002    0.189591560387540     
  1.070000000000000E-002    0.183050004000766     
  1.080000000000000E-002    0.176141130997083     
  1.090000000000000E-002    0.168858034093181     
  1.100000000000000E-002    0.161193918472452     
  1.110000000000000E-002    0.153142125548770     
  1.120000000000000E-002    0.144696142638927     
  1.130000000000000E-002    0.135849612794802     
  1.140000000000000E-002    0.126596348023140     
  1.150000000000000E-002    0.116930338706231     
  1.160000000000000E-002    0.106845780369545     
  1.170000000000000E-002    9.633706330310274E-002
  1.180000000000000E-002    8.539879955750442E-002
  1.190000000000000E-002    7.402583065378432E-002
  1.200000000000000E-002    6.221322676934010E-002
  1.210000000000000E-002    4.995634589391366E-002
  1.220000000000000E-002    3.725079118750055E-002
  1.230000000000000E-002    2.409247040124543E-002
  1.240000000000000E-002    1.047756178877835E-002
  1.250000000000000E-002   -3.597416851433181E-003
  1.260000000000000E-002   -1.813564484541055E-002
  1.270000000000000E-002   -3.313995896290316E-002
  1.280000000000000E-002   -4.861287224900038E-002
  1.290000000000000E-002   -6.455648347345851E-002
  1.300000000000000E-002   -8.097256510918115E-002
  1.310000000000000E-002   -9.786247745775911E-002
  1.320000000000000E-002   -0.115227186656989     
  1.330000000000000E-002   -0.133067254431060     
  1.340000000000000E-002   -0.151382829532211     
  1.350000000000000E-002   -0.170173586329169     
  1.360000000000000E-002   -0.189438794249630     
  1.370000000000000E-002   -0.209177244822988     
  1.380000000000000E-002   -0.229387244095159     
  1.390000000000000E-002   -0.250066670596974     
  1.400000000000000E-002   -0.271212821514704     
  1.410000000000000E-002   -0.292822557266137     
  1.420000000000000E-002   -0.314892191194691     
  1.430000000000000E-002   -0.337417559052282     
  1.440000000000000E-002   -0.360393860605420     
  1.450000000000000E-002   -0.383815823534142     
  1.460000000000000E-002   -0.407677633661039     
  1.470000000000000E-002   -0.431972915262851     
  1.480000000000000E-002   -0.456694651557301     
  1.490000000000000E-002   -0.481835348752918     
  1.500000000000000E-002   -0.507386880136998     
  1.510000000000000E-002   -0.533340527524230     
  1.520000000000000E-002   -0.559687012275425     
  1.530000000000000E-002   -0.586416430906084     
  1.540000000000000E-002   -0.613518294880002     
  1.550000000000000E-002   -0.640981491218059     
  1.560000000000000E-002   -0.668794330613482     
  1.570000000000000E-002   -0.696944506052520     
  1.580000000000000E-002   -0.725419053989408     
  1.590000000000000E-002   -0.754204386953960     
  1.600000000000000E-002   -0.783286377508636     
  1.610000000000000E-002   -0.812650211820570     
  1.620000000000000E-002   -0.842280521405884     
  1.630000000000000E-002   -0.872161212412255     
  1.640000000000000E-002   -0.902275756630985     
  1.650000000000000E-002   -0.932606861298576     
  1.660000000000000E-002   -0.963136642375760     
  1.670000000000000E-002   -0.993846709097928     
  1.680000000000000E-002    -1.02471805669226     
  1.690000000000000E-002    -1.05573112091342     
  1.700000000000000E-002    -1.08686572302898     
  1.710000000000000E-002    -1.11810114933699     
  1.720000000000000E-002    -1.14941604808460     
  1.730000000000000E-002    -1.18078870049322     
  1.740000000000000E-002    -1.21219668412994     
  1.750000000000000E-002    -1.24361712148810     
  1.760000000000000E-002    -1.27502661016641     
  1.770000000000000E-002    -1.30640125178345     
  1.780000000000000E-002    -1.33771672868209     
  1.790000000000000E-002    -1.36894825063384     
  1.800000000000000E-002    -1.40007049897666     
  1.810000000000000E-002    -1.43105783408916     
  1.820000000000000E-002    -1.46188417884926     
  1.830000000000000E-002    -1.49252303536917     
  1.840000000000000E-002    -1.52294758127093     
  1.850000000000000E-002    -1.55313067193365     
  1.860000000000000E-002    -1.58304469986620     
  1.870000000000000E-002    -1.61266194425143     