 -4.000000000000000E-002    0.000000000000000E+000
 -3.990000000000000E-002    0.000000000000000E+000
 -3.980000000000000E-002    0.000000000000000E+000
 -3.970000000000000E-002    0.000000000000000E+000
 -3.960000000000000E-002    0.000000000000000E+000
 -3.950000000000000E-002    0.000000000000000E+000
 -3.940000000000000E-002    0.000000000000000E+000
 -3.930000000000000E-002    0.000000000000000E+000
 -3.920000000000000E-002    0.000000000000000E+000
 -3.910000000000000E-002    0.000000000000000E+000
 -3.900000000000000E-002    0.000000000000000E+000
 -3.890000000000000E-002    0.000000000000000E+000
 -3.880000000000000E-002   -4.038973395419439E-042
 -3.870000000000000E-002   -1.085245999102379E-040
 -3.860000000000000E-002   -1.494689648928951E-039
 -3.850000000000000E-002   -1.404979388217631E-038
 -3.840000000000000E-002   -1.012590972419647E-037
 -3.830000000000000E-002   -5.960071346414664E-037
 -3.820000000000000E-002   -2.979930183644648E-036
 -3.810000000000000E-002   -1.299705396859902E-035
 -3.800000000000000E-002   -5.039392974702270E-035
 -3.790000000000000E-002   -1.761228246224803E-034
 -3.780000000000000E-002   -5.605342245872260E-034
 -3.770000000000000E-002   -1.636729334748145E-033
 -3.760000000000000E-002   -4.407151116544220E-033
 -3.750000000000000E-002   -1.097445809903967E-032
 -3.740000000000000E-002   -2.528069898708174E-032
 -3.730000000000000E-002   -5.370705585749575E-032
 -3.720000000000000E-002   -1.043170343065919E-031
 -3.710000000000000E-002   -1.816441550964301E-031
 -3.700000000000000E-002   -2.703896115507788E-031
 -3.690000000000000E-002   -2.955660834876947E-031
 -3.680000000000000E-002   -3.832482557842860E-032
 -3.670000000000000E-002    1.022849940381815E-030
 -3.660000000000000E-002    3.982557633930737E-030
 -3.650000000000000E-002    1.092204359145657E-029
 -3.640000000000000E-002    2.546321648411664E-029
 -3.630000000000000E-002    5.337155978184961E-029
 -3.620000000000000E-002    1.029384124338373E-028
 -3.610000000000000E-002    1.845689628621068E-028
 -3.600000000000000E-002    3.085459535473995E-028
 -3.590000000000000E-002    4.793421320316463E-028
 -3.580000000000000E-002    6.842048457714202E-028
 -3.570000000000000E-002    8.732515717409685E-028
 -3.560000000000000E-002    9.283940832942621E-028
 -3.550000000000000E-002    6.196809684997953E-028
 -3.540000000000000E-002   -4.490423679533744E-028
 -3.530000000000000E-002   -2.896916651711605E-027
 -3.520000000000000E-002   -7.606777479034900E-027
 -3.510000000000000E-002   -1.571661492263611E-026
 -3.500000000000000E-002   -2.851015890422394E-026
 -3.490000000000000E-002   -4.713515231138924E-026
 -3.480000000000000E-002   -7.206169428172716E-026
 -3.470000000000000E-002   -1.021888889762637E-025
 -3.460000000000000E-002   -1.335279535326090E-025
 -3.450000000000000E-002   -1.574488632571982E-025
 -3.440000000000000E-002   -1.585922261015417E-025
 -3.430000000000000E-002   -1.127322692564804E-025
 -3.420000000000000E-002    1.486275839718071E-026
 -3.410000000000000E-002    2.696984898110673E-025
 -3.400000000000000E-002    7.057127463344837E-025
 -3.390000000000000E-002    1.378751946195036E-024
 -3.380000000000000E-002    2.334091072279939E-024
 -3.370000000000000E-002    3.586295806118976E-024
 -3.360000000000000E-002    5.090250305719907E-024
 -3.350000000000000E-002    6.703342128044019E-024
 -3.340000000000000E-002    8.140783096523035E-024
 -3.330000000000000E-002    8.928947847532427E-024
 -3.320000000000000E-002    8.365422124191646E-024
 -3.310000000000000E-002    5.498936740226187E-024
 -3.300000000000000E-002   -8.529805756512501E-025
 -3.290000000000000E-002   -1.202677183273650E-023
 -3.280000000000000E-002   -2.935197619783219E-023
 -3.270000000000000E-002   -5.388375106934730E-023
 -3.260000000000000E-002   -8.601195953070550E-023
 -3.250000000000000E-002   -1.249428450747627E-022
 -3.240000000000000E-002   -1.680704062259252E-022
 -3.230000000000000E-002   -2.102846279481652E-022
 -3.220000000000000E-002   -2.433023737725058E-022
 -3.210000000000000E-002   -2.551518692605151E-022
 -3.200000000000000E-002   -2.299894802079624E-022
 -3.190000000000000E-002   -1.484702977292791E-022
 -3.180000000000000E-002    1.107614493933062E-023
 -3.170000000000000E-002    2.704105213240213E-022
 -3.160000000000000E-002    6.478697195041091E-022
 -3.150000000000000E-002    1.153444803330835E-021
 -3.140000000000000E-002    1.782477768284439E-021
 -3.130000000000000E-002    2.508235113040751E-021
 -3.120000000000000E-002    3.273924277357430E-021
 -3.110000000000000E-002    3.985093828405211E-021
 -3.100000000000000E-002    4.503773394218889E-021
 -3.090000000000000E-002    4.646126321398501E-021
 -3.080000000000000E-002    4.185734175888388E-021
 -3.070000000000000E-002    2.864834727987431E-021
 -3.060000000000000E-002    4.157822878501175E-022
 -3.050000000000000E-002   -3.405416238099974E-021
 -3.040000000000000E-002   -8.772518981608637E-021
 -3.030000000000000E-002   -1.572989067276298E-020
 -3.020000000000000E-002   -2.412328026720850E-020
 -3.010000000000000E-002   -3.352566496860968E-020
 -3.000000000000000E-002   -4.316633583818511E-020
 -2.990000000000000E-002   -5.187466318856679E-020
 -2.980000000000000E-002   -5.805300110472530E-020
 -2.970000000000000E-002   -5.969551475199363E-020
 -2.960000000000000E-002   -5.447060860363309E-020
 -2.950000000000000E-002   -3.988337142542616E-020
 -2.940000000000000E-002   -1.353044671617837E-020
 -2.930000000000000E-002    2.654789883244047E-020
 -2.920000000000000E-002    8.142501516670683E-020
 -2.910000000000000E-002    1.507759596436475E-019
 -2.900000000000000E-002    2.323360946847705E-019
 -2.890000000000000E-002    3.213895848096493E-019
 -2.880000000000000E-002    4.103662798791407E-019
 -2.870000000000000E-002    4.886415461343446E-019
 -2.860000000000000E-002    5.426422433210226E-019
 -2.850000000000000E-002    5.563605027157364E-019
 -2.840000000000000E-002    5.123607883500078E-019
 -2.830000000000000E-002    3.933324628810621E-019
 -2.820000000000000E-002    1.841881264733535E-019
 -2.810000000000000E-002   -1.253613269941442E-019
 -2.800000000000000E-002   -5.379089456824890E-019
 -2.790000000000000E-002   -1.045376111164888E-018
 -2.780000000000000E-002   -1.626294565993450E-018
 -2.770000000000000E-002   -2.243756366362311E-018
 -2.760000000000000E-002   -2.844487208364378E-018
 -2.750000000000000E-002   -3.359501270391788E-018
 -2.740000000000000E-002   -3.706737604834618E-018
 -2.730000000000000E-002   -3.795958574097337E-018
 -2.720000000000000E-002   -3.535995011659447E-018
 -2.710000000000000E-002   -2.844171035304625E-018
 -2.700000000000000E-002   -1.657433981664090E-018
 -2.690000000000000E-002    5.560373305784050E-020
 -2.680000000000000E-002    2.282817787699598E-018
 -2.670000000000000E-002    4.958271112174632E-018
 -2.660000000000000E-002    7.954960232301414E-018
 -2.650000000000000E-002    1.108210244018012E-017
 -2.640000000000000E-002    1.408827487217561E-017
 -2.630000000000000E-002    1.667134349284865E-017
 -2.620000000000000E-002    1.849554431031077E-017
 -2.610000000000000E-002    1.921536023134937E-017
 -2.600000000000000E-002    1.850502262857476E-017
 -2.590000000000000E-002    1.609164270017644E-017
 -2.580000000000000E-002    1.178925893479106E-017
 -2.570000000000000E-002    5.530571052672760E-018
 -2.560000000000000E-002   -2.607068805643060E-018
 -2.550000000000000E-002   -1.238465038473896E-017
 -2.540000000000000E-002   -2.339612950353663E-017
 -2.530000000000000E-002   -3.507630891628211E-017
 -2.520000000000000E-002   -4.672231575009510E-017
 -2.510000000000000E-002   -5.752748187302179E-017
 -2.500000000000000E-002   -6.662505996891724E-017
 -2.490000000000000E-002   -7.313792309888805E-017
 -2.480000000000000E-002   -7.622973322877910E-017
 -2.470000000000000E-002   -7.515299304255000E-017
 -2.460000000000000E-002   -6.929007264206855E-017
 -2.450000000000000E-002   -5.818476916579209E-017
 -2.440000000000000E-002   -4.156402843839761E-017
 -2.430000000000000E-002   -1.935179542342041E-017
 -2.420000000000000E-002    8.320713333021034E-018
 -2.410000000000000E-002    4.110233085824695E-017
 -2.400000000000000E-002    7.840022401885420E-017
 -2.390000000000000E-002    1.193434151735047E-016
 -2.380000000000000E-002    1.627284325030390E-016
 -2.370000000000000E-002    2.069484184284323E-016
 -2.360000000000000E-002    2.499130244367620E-016
 -2.350000000000000E-002    2.889730241631992E-016
 -2.340000000000000E-002    3.208702737333896E-016
 -2.330000000000000E-002    3.417387513171569E-016
 -2.320000000000000E-002    3.471848317915605E-016
 -2.310000000000000E-002    3.324732799868636E-016
 -2.300000000000000E-002    2.928388013766319E-016
 -2.290000000000000E-002    2.239309767106848E-016
 -2.280000000000000E-002    1.223831173147980E-016
 -2.270000000000000E-002   -1.352558268494761E-017
 -2.260000000000000E-002   -1.831679737424008E-016
 -2.250000000000000E-002   -3.829024561514290E-016
 -2.240000000000000E-002   -6.055346260209341E-016
 -2.230000000000000E-002   -8.400086563243333E-016
 -2.220000000000000E-002   -1.071427780648115E-015
 -2.210000000000000E-002   -1.281486223882152E-015
 -2.200000000000000E-002   -1.449363998305490E-015
 -2.190000000000000E-002   -1.553090190631228E-015
 -2.180000000000000E-002   -1.571324226230635E-015
 -2.170000000000000E-002   -1.485442011099006E-015
 -2.160000000000000E-002   -1.281755278656743E-015
 -2.150000000000000E-002   -9.536407200835328E-016
 -2.140000000000000E-002   -5.033255678357465E-016
 -2.130000000000000E-002    5.692794890347173E-017
 -2.120000000000000E-002    7.044678845969374E-016
 -2.110000000000000E-002    1.406893846197387E-015
 -2.100000000000000E-002    2.123762648314746E-015
 -2.090000000000000E-002    2.809307620662368E-015
 -2.080000000000000E-002    3.415983188968037E-015
 -2.070000000000000E-002    3.898516916821640E-015
 -2.060000000000000E-002    4.218039252017878E-015
 -2.050000000000000E-002    4.345791633965936E-015
 -2.040000000000000E-002    4.265902313082153E-015
 -2.030000000000000E-002    3.976775580170008E-015
 -2.020000000000000E-002    3.490771204615629E-015
 -2.010000000000000E-002    2.832048237404995E-015
 -2.000000000000000E-002    2.032697123284211E-015
 -1.990000000000000E-002    1.127558456667673E-015
 -1.980000000000000E-002    1.483864217155309E-016
 -1.970000000000000E-002   -8.817692840607889E-016
 -1.960000000000000E-002   -1.952970358151879E-015
 -1.950000000000000E-002   -3.070596188080108E-015
 -1.940000000000000E-002   -4.254511210298326E-015
 -1.930000000000000E-002   -5.534663245167594E-015
 -1.920000000000000E-002   -6.943026640472541E-015
 -1.910000000000000E-002   -8.502351948105877E-015
 -1.900000000000000E-002   -1.021277704533089E-014
 -1.890000000000000E-002   -1.203791359203091E-014
 -1.880000000000000E-002   -1.389246326242970E-014
 -1.870000000000000E-002   -1.563366761562131E-014
 -1.860000000000000E-002   -1.705886070688828E-014
 -1.850000000000000E-002   -1.791104748054161E-014
 -1.840000000000000E-002   -1.789374996169688E-014
 -1.830000000000000E-002   -1.669538874967169E-014
 -1.820000000000000E-002   -1.402225408091072E-014
 -1.810000000000000E-002   -9.637823950672872E-015
 -1.800000000000000E-002   -3.404928387274449E-015
 -1.790000000000000E-002    4.673784328525288E-015
 -1.780000000000000E-002    1.442224037362849E-014
 -1.770000000000000E-002    2.546947055583074E-014
 -1.760000000000000E-002    3.724498866029141E-014
 -1.750000000000000E-002    4.899451441900373E-014
 -1.740000000000000E-002    5.981769037222031E-014
 -1.730000000000000E-002    6.872710305330710E-014
 -1.720000000000000E-002    7.472534996650867E-014
 -1.710000000000000E-002    7.689429852987077E-014
 -1.700000000000000E-002    7.448851375471687E-014
 -1.690000000000000E-002    6.702329502844074E-014
 -1.680000000000000E-002    5.434720200437441E-014
 -1.670000000000000E-002    3.668957569510680E-014
 -1.660000000000000E-002    1.467538039269129E-014
 -1.650000000000000E-002   -1.069726678750728E-014
 -1.640000000000000E-002   -3.811764541101459E-014
 -1.630000000000000E-002   -6.605731875960000E-014
 -1.620000000000000E-002   -9.289122599181828E-014
 -1.610000000000000E-002   -1.170328760343527E-013
 -1.600000000000000E-002   -1.370687480884338E-013
 -1.590000000000000E-002   -1.518759754639041E-013
 -1.580000000000000E-002   -1.607080281181721E-013
 -1.570000000000000E-002   -1.632361728061269E-013
 -1.560000000000000E-002   -1.595393227246657E-013
 -1.550000000000000E-002   -1.500412181949491E-013
 -1.540000000000000E-002   -1.354012630356704E-013
 -1.530000000000000E-002   -1.163724975891751E-013
 -1.520000000000000E-002   -9.364642249559959E-014
 -1.510000000000000E-002   -6.770863579032616E-014
 -1.500000000000000E-002   -3.873064883000327E-014
 -1.490000000000000E-002   -6.521188268647129E-015
 -1.480000000000000E-002    2.944524094473502E-014
 -1.470000000000000E-002    6.991367832892418E-014
 -1.460000000000000E-002    1.156504973403191E-013
 -1.450000000000000E-002    1.671770750666280E-013
 -1.440000000000000E-002    2.244633423315781E-013
 -1.430000000000000E-002    2.866199736603429E-013
 -1.420000000000000E-002    3.516350918096914E-013
 -1.410000000000000E-002    4.162034429005007E-013
 -1.400000000000000E-002    4.756921141125030E-013
 -1.390000000000000E-002    5.242765728321882E-013
 -1.380000000000000E-002    5.552643961825631E-013
 -1.370000000000000E-002    5.616036488161013E-013
 -1.360000000000000E-002    5.365488471371398E-013
 -1.350000000000000E-002    4.744343004966932E-013
 -1.340000000000000E-002    3.714837540685394E-013
 -1.330000000000000E-002    2.265702687265458E-013
 -1.320000000000000E-002    4.183388304811461E-014
 -1.310000000000000E-002   -1.769321800718363E-013
 -1.300000000000000E-002   -4.202014436693159E-013
 -1.290000000000000E-002   -6.749902457466295E-013
 -1.280000000000000E-002   -9.255067647383133E-013
 -1.270000000000000E-002   -1.154150645784206E-012
 -1.260000000000000E-002   -1.342800566214808E-012
 -1.250000000000000E-002   -1.474289604865467E-012
 -1.240000000000000E-002   -1.533938748921418E-012
 -1.230000000000000E-002   -1.510999840820879E-012
 -1.220000000000000E-002   -1.399858386872477E-012
 -1.210000000000000E-002   -1.200857544424575E-012
 -1.200000000000000E-002   -9.206371877678066E-013
 -1.190000000000000E-002   -5.719242352329246E-013
 -1.180000000000000E-002   -1.727656621612037E-013
 -1.170000000000000E-002    2.547461047467311E-013
 -1.160000000000000E-002    6.861484422616814E-013
 -1.150000000000000E-002    1.096529957893739E-012
 -1.140000000000000E-002    1.462509996801484E-012
 -1.130000000000000E-002    1.764076305544865E-012
 -1.120000000000000E-002    1.986087272972852E-012
 -1.110000000000000E-002    2.119281041484032E-012
 -1.100000000000000E-002    2.160682799543183E-012
 -1.090000000000000E-002    2.113370102824254E-012
 -1.080000000000000E-002    1.985630446987576E-012
 -1.070000000000000E-002    1.789619039978061E-012
 -1.060000000000000E-002    1.539687528292571E-012
 -1.050000000000000E-002    1.250599173470166E-012
 -1.040000000000000E-002    9.358648001752982E-013
 -1.030000000000000E-002    6.064238224247869E-013
 -1.020000000000000E-002    2.698542595310853E-013
 -1.010000000000000E-002   -6.976988538595440E-014
 -1.000000000000000E-002   -4.113418089810099E-013
 -9.899999999999999E-003   -7.555687315513486E-013
 -9.800000000000000E-003   -1.103358249054772E-012
 -9.699999999999999E-003   -1.453979035976764E-012
 -9.599999999999999E-003   -1.803283585367517E-012
 -9.500000000000000E-003   -2.142298930235029E-012
 -9.399999999999999E-003   -2.456468513772366E-012
 -9.299999999999999E-003   -2.725767576930629E-012
 -9.200000000000000E-003   -2.925815005983572E-012
 -9.099999999999999E-003   -3.029980004161425E-012
 -8.999999999999999E-003   -3.012345372783492E-012
 -8.900000000000000E-003   -2.851254210836637E-012
 -8.799999999999999E-003   -2.533052234660891E-012
 -8.699999999999999E-003   -2.055562794846117E-012
 -8.600000000000000E-003   -1.430802621923686E-012
 -8.499999999999999E-003   -6.864765250544598E-013
 -8.399999999999999E-003    1.341197293456574E-013
 -8.300000000000000E-003    9.740175898627780E-013
 -8.199999999999999E-003    1.766353957547383E-012
 -8.100000000000000E-003    2.439840878185094E-012
 -8.000000000000000E-003    2.925542743856414E-012
 -7.899999999999999E-003    3.164380666158831E-012
 -7.800000000000000E-003    3.114642517095023E-012
 -7.699999999999999E-003    2.758691080835766E-012
 -7.599999999999999E-003    2.108059125541832E-012
 -7.499999999999999E-003    1.206205599858948E-012
 -7.399999999999999E-003    1.283764703012553E-013
 -7.299999999999999E-003   -1.021748344154619E-012
 -7.199999999999999E-003   -2.118639190864748E-012
 -7.100000000000000E-003   -3.024436453043723E-012
 -6.999999999999999E-003   -3.600786232350498E-012
 -6.899999999999999E-003   -3.722094234080972E-012
 -6.800000000000000E-003   -3.289090271152109E-012
 -6.699999999999999E-003   -2.241465089183671E-012
 -6.599999999999999E-003   -5.683431511786337E-013
 -6.499999999999999E-003    1.684550149812037E-012
 -6.399999999999999E-003    4.411950416252163E-012
 -6.299999999999999E-003    7.450952696955762E-012
 -6.199999999999999E-003    1.058796792824902E-011
 -6.100000000000000E-003    1.357053428723705E-011
 -5.999999999999999E-003    1.612336113391456E-011
 -5.899999999999999E-003    1.796758072279110E-011
 -5.800000000000000E-003    1.884188259159179E-011
 -5.699999999999999E-003    1.852397151498220E-011
 -5.599999999999999E-003    1.685073457364063E-011
 -5.499999999999999E-003    1.373549688506266E-011
 -5.399999999999999E-003    9.180974372195596E-012
 -5.299999999999999E-003    3.286779200083957E-012
 -5.199999999999999E-003   -3.749252735351731E-012
 -5.099999999999999E-003   -1.163622639932994E-011
 -4.999999999999999E-003   -2.000166764923598E-011
 -4.899999999999999E-003   -2.840872305309751E-011
 -4.799999999999999E-003   -3.637806819707767E-011
 -4.699999999999999E-003   -4.341322860022072E-011
 -4.599999999999999E-003   -4.902779469512742E-011
 -4.499999999999999E-003   -5.277294956949221E-011
 -4.399999999999999E-003   -5.426374604822058E-011
 -4.299999999999999E-003   -5.320271228898805E-011
 -4.199999999999999E-003   -4.939960921995271E-011
 -4.099999999999999E-003   -4.278642451382104E-011
 -3.999999999999999E-003   -3.342698512044111E-011
 -3.899999999999999E-003   -2.152093027947286E-011
 -3.799999999999999E-003   -7.401982787929232E-012
 -3.699999999999999E-003    8.469263968838424E-012
 -3.599999999999999E-003    2.551770645986318E-011
 -3.499999999999999E-003    4.307081553937114E-011
 -3.399999999999999E-003    6.037998623038483E-011
 -3.299999999999999E-003    7.664569769633375E-011
 -3.199999999999999E-003    9.104605628626751E-011
 -3.099999999999999E-003    1.027683237692256E-010
 -2.999999999999999E-003    1.110429273521425E-010
 -2.899999999999999E-003    1.151793817541280E-010
 -2.799999999999999E-003    1.146033672253877E-010
 -2.699999999999999E-003    1.088938763880518E-010
 -2.599999999999999E-003    9.781901508777158E-011
 -2.499999999999999E-003    8.136871072099854E-011
 -2.399999999999999E-003    5.978209200814502E-011
 -2.299999999999999E-003    3.356714973440940E-011
 -2.199999999999999E-003    3.509955010971342E-012
 -2.099999999999999E-003   -2.932914521268970E-011
 -1.999999999999999E-003   -6.363472282361283E-011
 -1.899999999999999E-003   -9.787265857407561E-011
 -1.799999999999999E-003   -1.303446708279792E-010
 -1.699999999999999E-003   -1.592607835504687E-010
 -1.599999999999999E-003   -1.828281210754283E-010
 -1.499999999999999E-003   -1.993530177727888E-010
 -1.399999999999999E-003   -2.073516828973177E-010
 -1.299999999999999E-003   -2.056633032985696E-010
 -1.199999999999999E-003   -1.935581986007871E-010
 -1.099999999999999E-003   -1.708328928020877E-010
 -9.999999999999989E-004   -1.378834847283994E-010
 -8.999999999999990E-004   -9.574923002103948E-011
 -7.999999999999990E-004   -4.611916873924688E-011
 -6.999999999999989E-004    8.703561303343017E-012
 -5.999999999999990E-004    6.588270655663587E-011
 -4.999999999999989E-004    1.221751364798657E-010
 -3.999999999999989E-004    1.740990611276796E-010
 -2.999999999999989E-004    2.181373906227760E-010
 -1.999999999999989E-004    2.509660490552971E-010
 -9.999999999999892E-005    2.696942215891217E-010
  1.084202172485504E-018    2.721009557363808E-010
  1.000000000000011E-004    2.568515879888776E-010
  2.000000000000011E-004    2.236767804353064E-010
  3.000000000000011E-004    1.734981364161959E-010
  4.000000000000011E-004    1.084867665283269E-010
  5.000000000000011E-004    3.204394582879733E-011
  6.000000000000011E-004   -5.130173654983304E-011
  7.000000000000011E-004   -1.360819811342248E-010
  8.000000000000011E-004   -2.161559825211049E-010
  9.000000000000012E-004   -2.850473649811136E-010
  1.000000000000001E-003   -3.363347103641658E-010
  1.100000000000001E-003   -3.640756643868991E-010
  1.200000000000001E-003   -3.632406733993675E-010
  1.300000000000001E-003   -3.301306604567676E-010
  1.400000000000001E-003   -2.627520703390602E-010
  1.500000000000001E-003   -1.611235721820772E-010
  1.600000000000001E-003   -2.749239715334810E-011
  1.700000000000001E-003    1.335595293686843E-010
  1.800000000000001E-003    3.151320941755784E-010
  1.900000000000001E-003    5.081537295317575E-010
  2.000000000000001E-003    7.016588676792820E-010
  2.100000000000001E-003    8.831899067232182E-010
  2.200000000000001E-003    1.039310695710588E-009
  2.300000000000001E-003    1.156211982137970E-009
  2.400000000000001E-003    1.220386463402173E-009
  2.500000000000001E-003    1.219344580904795E-009
  2.600000000000001E-003    1.142340174365999E-009
  2.700000000000001E-003    9.810755413567992E-010
  2.800000000000001E-003    7.303529530628907E-010
  2.900000000000001E-003    3.886422976556204E-010
  3.000000000000001E-003   -4.146323056351659E-011
  3.100000000000001E-003   -5.529303630806856E-010
  3.200000000000001E-003   -1.134127132769906E-009
  3.300000000000001E-003   -1.768841700606054E-009
  3.400000000000001E-003   -2.436489104530602E-009
  3.500000000000001E-003   -3.112513466661341E-009
  3.600000000000001E-003   -3.768986520135683E-009
  3.700000000000001E-003   -4.375397426257024E-009
  3.800000000000001E-003   -4.899620940448179E-009
  3.900000000000001E-003   -5.309047306730546E-009
  4.000000000000001E-003   -5.571846166283099E-009
  4.100000000000001E-003   -5.658335384529106E-009
  4.200000000000001E-003   -5.542413127194147E-009
  4.300000000000001E-003   -5.203008161888074E-009
  4.400000000000001E-003   -4.625498550393359E-009
  4.500000000000001E-003   -3.803040997535091E-009
  4.600000000000002E-003   -2.737756116110107E-009
  4.700000000000001E-003   -1.441703913022584E-009
  4.800000000000001E-003    6.240023009374768E-011
  4.900000000000002E-003    1.740789760015973E-009
  5.000000000000001E-003    3.548619064274628E-009
  5.100000000000001E-003    5.430333713067321E-009
  5.200000000000001E-003    7.320478532615308E-009
  5.300000000000002E-003    9.144949287345846E-009
  5.400000000000001E-003    1.082268327805924E-008
  5.500000000000001E-003    1.226778220905951E-008
  5.600000000000002E-003    1.339203311872653E-008
  5.700000000000001E-003    1.410777363650246E-008
  5.800000000000001E-003    1.433105744689434E-008
  5.900000000000002E-003    1.398504682692053E-008
  6.000000000000001E-003    1.300354872467324E-008
  6.100000000000001E-003    1.133464554543301E-008
  6.200000000000002E-003    8.944337993820126E-009
  6.300000000000002E-003    5.820093370670904E-009
  6.400000000000001E-003    1.974316539422000E-009
  6.500000000000001E-003   -2.552377936178356E-009
  6.600000000000002E-003   -7.688103639094624E-009
  6.700000000000001E-003   -1.332686041079494E-008
  6.800000000000001E-003   -1.932593434115455E-008
  6.900000000000002E-003   -2.550357809878766E-008
  7.000000000000001E-003   -3.163692128894000E-008
  7.100000000000001E-003   -3.746013253237185E-008
  7.200000000000002E-003   -4.266274533465381E-008
  7.300000000000002E-003   -4.688830511022207E-008
  7.400000000000001E-003   -4.973311159702316E-008
  7.500000000000001E-003   -5.074532597120064E-008
  7.600000000000002E-003   -4.942404456367269E-008
  7.700000000000001E-003   -4.521892375632876E-008
  7.800000000000001E-003   -3.752978836286971E-008
  7.900000000000001E-003   -2.570659803245467E-008
  8.000000000000002E-003   -9.049813815489109E-009
  8.100000000000001E-003    1.318896278342245E-008
  8.200000000000001E-003    4.180612269817535E-008
  8.300000000000002E-003    7.764455795202825E-008
  8.400000000000001E-003    1.215919673707115E-007
  8.500000000000002E-003    1.745788984996367E-007
  8.600000000000002E-003    2.375760768383700E-007
  8.700000000000001E-003    3.115918309963348E-007
  8.800000000000002E-003    3.976691647627968E-007
  8.900000000000002E-003    4.968827345048562E-007
  9.000000000000001E-003    6.103355568030874E-007
  9.100000000000002E-003    7.391560143405143E-007
  9.200000000000002E-003    8.844949336496332E-007
  9.300000000000001E-003    1.047522768732610E-006
  9.400000000000002E-003    1.229427514284928E-006
  9.500000000000001E-003    1.431412312503557E-006
  9.600000000000001E-003    1.654694833620117E-006
  9.700000000000002E-003    1.900505995145175E-006
  9.800000000000001E-003    2.170089937668218E-006
  9.900000000000001E-003    2.464704929629530E-006
  1.000000000000000E-002    2.785624684797745E-006
  1.010000000000000E-002    3.134140870539851E-006
  1.020000000000000E-002    3.511565437366603E-006
  1.030000000000000E-002    3.919235171331360E-006
  1.040000000000000E-002    4.358516402663432E-006
  1.050000000000000E-002    4.830810261780227E-006
  1.060000000000000E-002    5.337558396657471E-006
  1.070000000000000E-002    5.880251265707451E-006
  1.080000000000000E-002    6.460434338934425E-006
  1.090000000000000E-002    7.079719558645476E-006
  1.100000000000000E-002    7.739792805929318E-006
  1.110000000000000E-002    8.442422172892568E-006
  1.120000000000000E-002    9.189472950460025E-006
  1.130000000000000E-002    9.982916479264284E-006
  1.140000000000000E-002    1.082484223153222E-005
  1.150000000000000E-002    1.171747160490290E-005
  1.160000000000000E-002    1.266316926855193E-005
  1.170000000000000E-002    1.366445822609289E-005
  1.180000000000000E-002    1.472403343930744E-005
  1.190000000000000E-002    1.584477472821433E-005
  1.200000000000000E-002    1.702975975023085E-005
  1.210000000000000E-002    1.828228328870436E-005
  1.220000000000000E-002    1.960586319415588E-005
  1.230000000000000E-002    2.100426524814345E-005
  1.240000000000000E-002    2.248150386671916E-005
  1.250000000000000E-002    2.404186689091980E-005
  1.260000000000000E-002    2.568992546481623E-005
  1.270000000000000E-002    2.743054302827398E-005
  1.280000000000000E-002    2.926889277610526E-005
  1.290000000000000E-002    3.121047076941661E-005
  1.300000000000000E-002    3.326110251218309E-005
  1.310000000000000E-002    3.542696195205376E-005
  1.320000000000000E-002    3.771457597621148E-005
  1.330000000000000E-002    4.013084064851023E-005
  1.340000000000000E-002    4.268304283380182E-005
  1.350000000000000E-002    4.537884822102877E-005
  1.360000000000000E-002    4.822634082987970E-005
  1.370000000000000E-002    5.123401704010492E-005
  1.380000000000000E-002    5.441080670564205E-005
  1.390000000000000E-002    5.776608839046601E-005
  1.400000000000000E-002    6.130970280128817E-005
  1.410000000000000E-002    6.505198024756569E-005
  1.420000000000000E-002    6.900373155519613E-005
  1.430000000000000E-002    7.317629762940278E-005
  1.440000000000000E-002    7.758155092378989E-005
  1.450000000000000E-002    8.223191735729968E-005
  1.460000000000000E-002    8.714041330085310E-005
  1.470000000000000E-002    9.232064770529429E-005
  1.480000000000000E-002    9.778686887244300E-005
  1.490000000000000E-002    1.035539563346083E-004
  1.500000000000000E-002    1.096374992112476E-004
  1.510000000000000E-002    1.160537543571058E-004
  1.520000000000000E-002    1.228197422232739E-004
  1.530000000000000E-002    1.299532436299700E-004
  1.540000000000000E-002    1.374728042210731E-004
  1.550000000000000E-002    1.453977915107057E-004
  1.560000000000000E-002    1.537484155029492E-004
  1.570000000000000E-002    1.625457740745589E-004
  1.580000000000000E-002    1.718118564933733E-004
  1.590000000000000E-002    1.815696137331348E-004
  1.600000000000000E-002    1.918429537140510E-004
  1.610000000000000E-002    2.026567913265761E-004
  1.620000000000000E-002    2.140371100341697E-004
  1.630000000000000E-002    2.260109549456614E-004
  1.640000000000000E-002    2.386065156591121E-004
  1.650000000000000E-002    2.518531574142121E-004
  1.660000000000000E-002    2.657814784173219E-004
  1.670000000000000E-002    2.804233598724851E-004
  1.680000000000000E-002    2.958119822886544E-004
  1.690000000000000E-002    3.119819462792354E-004
  1.700000000000000E-002    3.289692954211758E-004
  1.710000000000000E-002    3.468115882170321E-004
  1.720000000000000E-002    3.655479171792948E-004
  1.730000000000000E-002    3.852190366557709E-004
  1.740000000000000E-002    4.058673820044974E-004
  1.750000000000000E-002    4.275371336187711E-004
  1.760000000000000E-002    4.502742590544765E-004
  1.770000000000000E-002    4.741266241852848E-004
  1.780000000000000E-002    4.991439590156957E-004
  1.790000000000000E-002    5.253780257857933E-004
  1.800000000000000E-002    5.528826440324020E-004
  1.810000000000000E-002    5.817135786666468E-004
  1.820000000000000E-002    6.119288447008665E-004
  1.830000000000000E-002    6.435886116206173E-004
  1.840000000000000E-002    6.767552464482918E-004
  1.850000000000000E-002    7.114934151128760E-004
  1.860000000000000E-002    7.478701687658966E-004
  1.870000000000000E-002    7.859548817161069E-004