 -4.000000000000000E-002    0.000000000000000E+000
 -3.990000000000000E-002    0.000000000000000E+000
 -3.980000000000000E-002    0.000000000000000E+000
 -3.970000000000000E-002    0.000000000000000E+000
 -3.960000000000000E-002    0.000000000000000E+000
 -3.950000000000000E-002    0.000000000000000E+000
 -3.940000000000000E-002    0.000000000000000E+000
 -3.930000000000000E-002    0.000000000000000E+000
 -3.920000000000000E-002    0.000000000000000E+000
 -3.910000000000000E-002    0.000000000000000E+000
 -3.900000000000000E-002    0.000000000000000E+000
 -3.890000000000000E-002    0.000000000000000E+000
 -3.880000000000000E-002    0.000000000000000E+000
 -3.870000000000000E-002    0.000000000000000E+000
 -3.860000000000000E-002    0.000000000000000E+000
 -3.850000000000000E-002    0.000000000000000E+000
 -3.840000000000000E-002    0.000000000000000E+000
 -3.830000000000000E-002    0.000000000000000E+000
 -3.820000000000000E-002    0.000000000000000E+000
 -3.810000000000000E-002    0.000000000000000E+000
 -3.800000000000000E-002    0.000000000000000E+000
 -3.790000000000000E-002    0.000000000000000E+000
 -3.780000000000000E-002    0.000000000000000E+000
 -3.770000000000000E-002    0.000000000000000E+000
 -3.760000000000000E-002    0.000000000000000E+000
 -3.750000000000000E-002    0.000000000000000E+000
 -3.740000000000000E-002    0.000000000000000E+000
 -3.730000000000000E-002    0.000000000000000E+000
 -3.720000000000000E-002    0.000000000000000E+000
 -3.710000000000000E-002    0.000000000000000E+000
 -3.700000000000000E-002    0.000000000000000E+000
 -3.690000000000000E-002    0.000000000000000E+000
 -3.680000000000000E-002    0.000000000000000E+000
 -3.670000000000000E-002    0.000000000000000E+000
 -3.660000000000000E-002    0.000000000000000E+000
 -3.650000000000000E-002    0.000000000000000E+000
 -3.640000000000000E-002    0.000000000000000E+000
 -3.630000000000000E-002    0.000000000000000E+000
 -3.620000000000000E-002    0.000000000000000E+000
 -3.610000000000000E-002    0.000000000000000E+000
 -3.600000000000000E-002    0.000000000000000E+000
 -3.590000000000000E-002    0.000000000000000E+000
 -3.580000000000000E-002    0.000000000000000E+000
 -3.570000000000000E-002    0.000000000000000E+000
 -3.560000000000000E-002    0.000000000000000E+000
 -3.550000000000000E-002    0.000000000000000E+000
 -3.540000000000000E-002    0.000000000000000E+000
 -3.530000000000000E-002    0.000000000000000E+000
 -3.520000000000000E-002    0.000000000000000E+000
 -3.510000000000000E-002    0.000000000000000E+000
 -3.500000000000000E-002    0.000000000000000E+000
 -3.490000000000000E-002    0.000000000000000E+000
 -3.480000000000000E-002    0.000000000000000E+000
 -3.470000000000000E-002    0.000000000000000E+000
 -3.460000000000000E-002    0.000000000000000E+000
 -3.450000000000000E-002    0.000000000000000E+000
 -3.440000000000000E-002    0.000000000000000E+000
 -3.430000000000000E-002    0.000000000000000E+000
 -3.420000000000000E-002    0.000000000000000E+000
 -3.410000000000000E-002    0.000000000000000E+000
 -3.400000000000000E-002    0.000000000000000E+000
 -3.390000000000000E-002    0.000000000000000E+000
 -3.380000000000000E-002    5.485091622035438E-048
 -3.370000000000000E-002    1.097018324407088E-047
 -3.360000000000000E-002    5.821856443162224E-047
 -3.350000000000000E-002    1.109520372412090E-046
 -3.340000000000000E-002    1.901248393781844E-046
 -3.330000000000000E-002    2.730374766500515E-046
 -3.320000000000000E-002    3.649388907991896E-046
 -3.310000000000000E-002    3.928759631191748E-046
 -3.300000000000000E-002    7.278102299627018E-047
 -3.290000000000000E-002   -7.093843405784530E-046
 -3.280000000000000E-002   -2.548986761157168E-045
 -3.270000000000000E-002   -6.112116712222732E-045
 -3.260000000000000E-002   -1.250771788033896E-044
 -3.250000000000000E-002   -2.290048304930646E-044
 -3.240000000000000E-002   -3.848188959765574E-044
 -3.230000000000000E-002   -6.001458851336399E-044
 -3.220000000000000E-002   -8.745020111292073E-044
 -3.210000000000000E-002   -1.162209161373588E-043
 -3.200000000000000E-002   -1.358596065675118E-043
 -3.190000000000000E-002   -1.220625967964564E-043
 -3.180000000000000E-002   -3.265634061400133E-044
 -3.170000000000000E-002    2.014770982375182E-043
 -3.160000000000000E-002    6.837786491746080E-043
 -3.150000000000000E-002    1.556502082179881E-042
 -3.140000000000000E-002    2.995758648265208E-042
 -3.130000000000000E-002    5.183454200408314E-042
 -3.120000000000000E-002    8.246740928432224E-042
 -3.110000000000000E-002    1.214204545254306E-041
 -3.100000000000000E-002    1.646599237423093E-041
 -3.090000000000000E-002    2.017105140500503E-041
 -3.080000000000000E-002    2.117947984679633E-041
 -3.070000000000000E-002    1.591722164286100E-041
 -3.060000000000000E-002   -1.161882828841769E-042
 -3.050000000000000E-002   -3.791846456235451E-041
 -3.040000000000000E-002   -1.044806098793923E-040
 -3.030000000000000E-002   -2.124157178824003E-040
 -3.020000000000000E-002   -3.725766274837091E-040
 -3.010000000000000E-002   -5.909627190648588E-040
 -3.000000000000000E-002   -8.618795551926465E-040
 -2.990000000000000E-002   -1.157827797499577E-039
 -2.980000000000000E-002   -1.415954504860814E-039
 -2.970000000000000E-002   -1.521773484962910E-039
 -2.960000000000000E-002   -1.292287035055699E-039
 -2.950000000000000E-002   -4.627249392766615E-040
 -2.940000000000000E-002    1.316135280038760E-039
 -2.930000000000000E-002    4.459922967887845E-039
 -2.920000000000000E-002    9.398627975263594E-039
 -2.910000000000000E-002    1.647508492012826E-038
 -2.900000000000000E-002    2.577858033160612E-038
 -2.890000000000000E-002    3.690224454305292E-038
 -2.880000000000000E-002    4.862305571807780E-038
 -2.870000000000000E-002    5.852165841975130E-038
 -2.860000000000000E-002    6.258727023938983E-038
 -2.850000000000000E-002    5.489129950900739E-038
 -2.840000000000000E-002    2.745985667214566E-038
 -2.830000000000000E-002   -2.947453908967705E-038
 -2.820000000000000E-002   -1.266175847863427E-037
 -2.810000000000000E-002   -2.739048196238548E-037
 -2.800000000000000E-002   -4.777044700526993E-037
 -2.790000000000000E-002   -7.367691758142518E-037
 -2.780000000000000E-002   -1.036930367174083E-036
 -2.770000000000000E-002   -1.344788233831461E-036
 -2.760000000000000E-002   -1.601021183304578E-036
 -2.750000000000000E-002   -1.714417170976296E-036
 -2.740000000000000E-002   -1.558283071416614E-036
 -2.730000000000000E-002   -9.714605383163864E-037
 -2.720000000000000E-002    2.333310139916228E-037
 -2.710000000000000E-002    2.250820983569172E-036
 -2.700000000000000E-002    5.251266672488874E-036
 -2.690000000000000E-002    9.333002954297657E-036
 -2.680000000000000E-002    1.445854538430908E-035
 -2.670000000000000E-002    2.037557389052264E-035
 -2.660000000000000E-002    2.652735306880425E-035
 -2.650000000000000E-002    3.196140382329157E-035
 -2.640000000000000E-002    3.525035495073096E-035
 -2.630000000000000E-002    3.444478646649751E-035
 -2.620000000000000E-002    2.708390702748070E-035
 -2.610000000000000E-002    1.029562036810023E-035
 -2.600000000000000E-002   -1.897810284509511E-035
 -2.590000000000000E-002   -6.359297423252045E-035
 -2.580000000000000E-002   -1.256164211810629E-034
 -2.570000000000000E-002   -2.055186401259190E-034
 -2.560000000000000E-002   -3.011347186692021E-034
 -2.550000000000000E-002   -4.064244986002426E-034
 -2.540000000000000E-002   -5.101064563919515E-034
 -2.530000000000000E-002   -5.943110371367801E-034
 -2.520000000000000E-002   -6.334897864234981E-034
 -2.510000000000000E-002   -5.939258922273933E-034
 -2.500000000000000E-002   -4.343110697446096E-034
 -2.490000000000000E-002   -1.079661144111898E-034
 -2.480000000000000E-002    4.326417284254742E-034
 -2.470000000000000E-002    1.228432905645532E-033
 -2.460000000000000E-002    2.302782250613422E-033
 -2.450000000000000E-002    3.646925658352007E-033
 -2.440000000000000E-002    5.202090590658267E-033
 -2.430000000000000E-002    6.839608357215857E-033
 -2.420000000000000E-002    8.341436412050701E-033
 -2.410000000000000E-002    9.384933001092505E-033
 -2.400000000000000E-002    9.537230137634824E-033
 -2.390000000000000E-002    8.265885917565483E-033
 -2.380000000000000E-002    4.973286525564200E-033
 -2.370000000000000E-002   -9.379751692503258E-034
 -2.360000000000000E-002   -9.963331858089510E-033
 -2.350000000000000E-002   -2.235657085777942E-032
 -2.340000000000000E-002   -3.795707542948798E-032
 -2.330000000000000E-002   -5.599759647596017E-032
 -2.320000000000000E-002   -7.491694121844130E-032
 -2.310000000000000E-002   -9.221362202675806E-032
 -2.300000000000000E-002   -1.043871110969948E-031
 -2.290000000000000E-002   -1.070202232717064E-031
 -2.280000000000000E-002   -9.505628294082055E-032
 -2.270000000000000E-002   -6.331452374182620E-032
 -2.260000000000000E-002   -7.264090261895116E-033
 -2.250000000000000E-002    7.596075126129909E-032
 -2.240000000000000E-002    1.863727173175343E-031
 -2.230000000000000E-002    3.199008605415522E-031
 -2.220000000000000E-002    4.673098537864914E-031
 -2.210000000000000E-002    6.135155910287533E-031
 -2.200000000000000E-002    7.375725584406164E-031
 -2.190000000000000E-002    8.135969589283517E-031
 -2.180000000000000E-002    8.128237908319312E-031
 -2.170000000000000E-002    7.068648351804341E-031
 -2.160000000000000E-002    4.720406456797839E-031
 -2.150000000000000E-002    9.441377393939801E-032
 -2.140000000000000E-002   -4.251137090997190E-031
 -2.130000000000000E-002   -1.066513667171896E-030
 -2.120000000000000E-002   -1.788181817347401E-030
 -2.110000000000000E-002   -2.527345093591236E-030
 -2.100000000000000E-002   -3.204126108447396E-030
 -2.090000000000000E-002   -3.729592258733654E-030
 -2.080000000000000E-002   -4.017385305971398E-030
 -2.070000000000000E-002   -3.997610272113528E-030
 -2.060000000000000E-002   -3.630670534860023E-030
 -2.050000000000000E-002   -2.917873496710495E-030
 -2.040000000000000E-002   -1.905159898542271E-030
 -2.030000000000000E-002   -6.764768121878408E-031
 -2.020000000000000E-002    6.656029645721299E-031
 -2.010000000000000E-002    2.032287092236738E-030
 -2.000000000000000E-002    3.391119259563642E-030
 -1.990000000000000E-002    4.811887057643301E-030
 -1.980000000000000E-002    6.504968622736691E-030
 -1.970000000000000E-002    8.837695205518784E-030
 -1.960000000000000E-002    1.231252209350080E-029
 -1.950000000000000E-002    1.749186767393497E-029
 -1.940000000000000E-002    2.485949928585513E-029
 -1.930000000000000E-002    3.461793664559132E-029
 -1.920000000000000E-002    4.643556797828173E-029
 -1.910000000000000E-002    5.917499932413366E-029
 -1.900000000000000E-002    7.065339267244351E-029
 -1.890000000000000E-002    7.750289870875129E-029
 -1.880000000000000E-002    7.521039315734158E-029
 -1.870000000000000E-002    5.841553948223577E-029
 -1.860000000000000E-002    2.153021980852380E-029
 -1.850000000000000E-002   -4.029293074761674E-029
 -1.840000000000000E-002   -1.298705941485578E-028
 -1.830000000000000E-002   -2.464784126669217E-028
 -1.820000000000000E-002   -3.843051793189128E-028
 -1.810000000000000E-002   -5.311391190790517E-028
 -1.800000000000000E-002   -6.676205705680557E-028
 -1.790000000000000E-002   -7.674252427374465E-028
 -1.780000000000000E-002   -7.987192409650657E-028
 -1.770000000000000E-002   -7.271328189521724E-028
 -1.760000000000000E-002   -5.203282947343855E-028
 -1.750000000000000E-002   -1.539891945638091E-028
 -1.740000000000000E-002    3.812470073180081E-028
 -1.730000000000000E-002    1.072722568817224E-027
 -1.720000000000000E-002    1.879671734693679E-027
 -1.710000000000000E-002    2.729445557138204E-027
 -1.700000000000000E-002    3.517448142966086E-027
 -1.690000000000000E-002    4.112037381470473E-027
 -1.680000000000000E-002    4.365239121936467E-027
 -1.670000000000000E-002    4.129455358471452E-027
 -1.660000000000000E-002    3.279432818672465E-027
 -1.650000000000000E-002    1.737690567065672E-027
 -1.640000000000000E-002   -4.994917728723445E-028
 -1.630000000000000E-002   -3.339384205696752E-027
 -1.620000000000000E-002   -6.577886817912689E-027
 -1.610000000000000E-002   -9.896928634531204E-027
 -1.600000000000000E-002   -1.287811112509140E-026
 -1.590000000000000E-002   -1.503508555218615E-026
 -1.580000000000000E-002   -1.586497294275363E-026
 -1.570000000000000E-002   -1.491625301332741E-026
 -1.560000000000000E-002   -1.186736442032426E-026
 -1.550000000000000E-002   -6.607057358646960E-027
 -1.540000000000000E-002    6.950333762058180E-028
 -1.530000000000000E-002    9.540680342246811E-027
 -1.520000000000000E-002    1.909121181337735E-026
 -1.510000000000000E-002    2.820245080810208E-026
 -1.500000000000000E-002    3.551322477919827E-026
 -1.490000000000000E-002    3.958801326505179E-026
 -1.480000000000000E-002    3.910661925527299E-026
 -1.470000000000000E-002    3.308516820609362E-026
 -1.460000000000000E-002    2.110462766895693E-026
 -1.450000000000000E-002    3.516203853097973E-027
 -1.440000000000000E-002   -1.841094356826794E-026
 -1.430000000000000E-002   -4.243439273102280E-026
 -1.420000000000000E-002   -6.540580373329389E-026
 -1.410000000000000E-002   -8.348188425238208E-026
 -1.400000000000000E-002   -9.248565903513211E-026
 -1.390000000000000E-002   -8.840735699174493E-026
 -1.380000000000000E-002   -6.801374747067501E-026
 -1.370000000000000E-002   -2.951462324014822E-026
 -1.360000000000000E-002    2.678363513107737E-026
 -1.350000000000000E-002    9.792186667685337E-026
 -1.340000000000000E-002    1.779220108637660E-025
 -1.330000000000000E-002    2.577038145007383E-025
 -1.320000000000000E-002    3.253680196506850E-025
 -1.310000000000000E-002    3.669090696798567E-025
 -1.300000000000000E-002    3.673909081212163E-025
 -1.290000000000000E-002    3.125770691506740E-025
 -1.280000000000000E-002    1.909563709397225E-025
 -1.270000000000000E-002   -3.954626737321822E-027
 -1.260000000000000E-002   -2.712147332920094E-025
 -1.250000000000000E-002   -6.002154763216091E-025
 -1.240000000000000E-002   -9.689018070073331E-025
 -1.230000000000000E-002   -1.342812717872344E-024
 -1.220000000000000E-002   -1.675322488210277E-024
 -1.210000000000000E-002   -1.909449102677949E-024
 -1.200000000000000E-002   -1.981533802449381E-024
 -1.190000000000000E-002   -1.826970242318775E-024
 -1.180000000000000E-002   -1.387964001360936E-024
 -1.170000000000000E-002   -6.230351144461190E-025
 -1.160000000000000E-002    4.823568485863988E-025
 -1.150000000000000E-002    1.905055598873754E-024
 -1.140000000000000E-002    3.574681380269011E-024
 -1.130000000000000E-002    5.367009648144788E-024
 -1.120000000000000E-002    7.102120568418501E-024
 -1.110000000000000E-002    8.549171706148901E-024
 -1.100000000000000E-002    9.439361696067184E-024
 -1.090000000000000E-002    9.488050121453542E-024
 -1.080000000000000E-002    8.426028855465271E-024
 -1.070000000000000E-002    6.038680600360654E-024
 -1.060000000000000E-002    2.210231248420092E-024
 -1.050000000000000E-002   -3.031286441930634E-024
 -1.040000000000000E-002   -9.474217854767706E-024
 -1.030000000000000E-002   -1.669556394893310E-023
 -1.020000000000000E-002   -2.405271930503277E-023
 -1.010000000000000E-002   -3.070152258267747E-023
 -1.000000000000000E-002   -3.564583507106478E-023
 -9.899999999999999E-003   -3.782100798251181E-023
 -9.800000000000000E-003   -3.620960388282888E-023
 -9.699999999999999E-003   -2.998284091438202E-023
 -9.599999999999999E-003   -1.865595406603628E-023
 -9.500000000000000E-003   -2.240586708197734E-024
 -9.399999999999999E-003    1.862671690511517E-023
 -9.299999999999999E-003    4.260302012832900E-023
 -9.200000000000000E-003    6.762717742382218E-023
 -9.099999999999999E-003    9.099669715605812E-023
 -8.999999999999999E-003    1.095451394526468E-022
 -8.900000000000000E-003    1.199214746023226E-022
 -8.799999999999999E-003    1.189596922291827E-022
 -8.699999999999999E-003    1.041124643652240E-022
 -8.600000000000000E-003    7.390830874040090E-023
 -8.499999999999999E-003    2.837967774901731E-023
 -8.399999999999999E-003   -3.059863196822861E-023
 -8.300000000000000E-003   -9.912265796508591E-023
 -8.199999999999999E-003   -1.712802633983530E-022
 -8.100000000000000E-003   -2.394213425850654E-022
 -8.000000000000000E-003   -2.946963512057360E-022
 -7.899999999999999E-003   -3.278527883755901E-022
 -7.800000000000000E-003   -3.302457438799833E-022
 -7.699999999999999E-003   -2.949841191151509E-022
 -7.599999999999999E-003   -2.181034663568497E-022
 -7.499999999999999E-003   -9.963244000867525E-023
 -7.399999999999999E-003    5.559107534729311E-023
 -7.299999999999999E-003    2.374952427667721E-022
 -7.199999999999999E-003    4.308619274106483E-022
 -7.100000000000000E-003    6.160102376951282E-022
 -6.999999999999999E-003    7.701084830741129E-022
 -6.899999999999999E-003    8.690823917291058E-022
 -6.800000000000000E-003    8.900203972084461E-022
 -6.699999999999999E-003    8.139060863834510E-022
 -6.599999999999999E-003    6.284485988348877E-022
 -6.499999999999999E-003    3.307362389839222E-022
 -6.399999999999999E-003   -7.058881075114859E-023
 -6.299999999999999E-003   -5.539356819487780E-022
 -6.199999999999999E-003   -1.084424856513542E-021
 -6.100000000000000E-003   -1.614822627881991E-021
 -5.999999999999999E-003   -2.087887308002312E-021
 -5.899999999999999E-003   -2.440162361452283E-021
 -5.800000000000000E-003   -2.607126207036301E-021
 -5.699999999999999E-003   -2.529475624915772E-021
 -5.599999999999999E-003   -2.160179825280509E-021
 -5.499999999999999E-003   -1.471805296248239E-021
 -5.399999999999999E-003   -4.634907045925076E-022
 -5.299999999999999E-003    8.331500412498434E-022
 -5.199999999999999E-003    2.349977545606153E-021
 -5.099999999999999E-003    3.980924162870553E-021
 -4.999999999999999E-003    5.583976694771080E-021
 -4.899999999999999E-003    6.987142410837389E-021
 -4.799999999999999E-003    7.998774350403524E-021
 -4.699999999999999E-003    8.422292550564648E-021
 -4.599999999999999E-003    8.074916072955796E-021
 -4.499999999999999E-003    6.809510305576604E-021
 -4.399999999999999E-003    4.538096593763796E-021
 -4.299999999999999E-003    1.255003343881177E-021
 -4.199999999999999E-003   -2.942853373500008E-021
 -4.099999999999999E-003   -7.841428972520751E-021
 -3.999999999999999E-003   -1.310374828472283E-020
 -3.899999999999999E-003   -1.827566390126071E-020
 -3.799999999999999E-003   -2.280542078151308E-020
 -3.699999999999999E-003   -2.607832564378696E-020
 -3.599999999999999E-003   -2.746643244067234E-020
 -3.499999999999999E-003   -2.639144581849398E-020
 -3.399999999999999E-003   -2.239709778862430E-020
 -3.299999999999999E-003   -1.522528612605517E-020
 -3.199999999999999E-003   -4.888491804482142E-021
 -3.099999999999999E-003    8.270344613097822E-021
 -2.999999999999999E-003    2.353992089310696E-020
 -2.899999999999999E-003    3.983367173186856E-020
 -2.799999999999999E-003    5.572145756741487E-020
 -2.699999999999999E-003    6.950474932247900E-020
 -2.599999999999999E-003    7.933635940565339E-020
 -2.499999999999999E-003    8.338113283420035E-020
 -2.399999999999999E-003    8.000872030335358E-020
 -2.299999999999999E-003    6.800427636045670E-020
 -2.199999999999999E-003    4.677823825492574E-020
 -2.099999999999999E-003    1.655277343562733E-020
 -1.999999999999999E-003   -2.149914311463764E-020
 -1.899999999999999E-003   -6.518553827214028E-020
 -1.799999999999999E-003   -1.113183676461653E-019
 -1.699999999999999E-003   -1.558418654452425E-019
 -1.599999999999999E-003   -1.940722223982918E-019
 -1.499999999999999E-003   -2.210441434569532E-019
 -1.399999999999999E-003   -2.319481586394528E-019
 -1.299999999999999E-003   -2.226309901168055E-019
 -1.199999999999999E-003   -1.901205151827606E-019
 -1.099999999999999E-003   -1.331282314286917E-019
 -9.999999999999989E-004   -5.247726340090321E-020
 -8.999999999999990E-004    4.859723545729251E-020
 -7.999999999999990E-004    1.643245935993872E-019
 -6.999999999999989E-004    2.864919996233007E-019
 -5.999999999999990E-004    4.047814559996102E-019
 -4.999999999999989E-004    5.073582144613256E-019
 -3.999999999999989E-004    5.816984097077049E-019
 -2.999999999999989E-004    6.156199787998186E-019
 -1.999999999999989E-004    5.984580053727617E-019
 -9.999999999999892E-005    5.223046365777248E-019
  1.084202172485504E-018    3.832157234908670E-019
  1.000000000000011E-004    1.822738968675187E-019
  2.000000000000011E-004   -7.360808996811071E-020
  3.000000000000011E-004   -3.712566082181867E-019
  4.000000000000011E-004   -6.912807282045030E-019
  5.000000000000011E-004   -1.008669195371786E-018
  6.000000000000011E-004   -1.293988069525684E-018
  7.000000000000011E-004   -1.515185645871017E-018
  8.000000000000011E-004   -1.639960834681147E-018
  9.000000000000012E-004   -1.638595650496045E-018
  1.000000000000001E-003   -1.487094748026139E-018
  1.100000000000001E-003   -1.170416494461527E-018
  1.200000000000001E-003   -6.855312253347314E-019
  1.300000000000001E-003   -4.400050361437805E-020
  1.400000000000001E-003    7.262447536920445E-019
  1.500000000000001E-003    1.580247771300278E-018
  1.600000000000001E-003    2.456774204573647E-018
  1.700000000000001E-003    3.280682101616083E-018
  1.800000000000001E-003    3.967020980988143E-018
  1.900000000000001E-003    4.426838035641334E-018
  2.000000000000001E-003    4.574493112144246E-018
  2.100000000000001E-003    4.336114081788888E-018
  2.200000000000001E-003    3.658628806038003E-018
  2.300000000000001E-003    2.518649532189448E-018
  2.400000000000001E-003    9.303463765177089E-019
  2.500000000000001E-003   -1.048625808900624E-018
  2.600000000000001E-003   -3.314083845372572E-018
  2.700000000000001E-003   -5.715997605904241E-018
  2.800000000000001E-003   -8.063545489898265E-018
  2.900000000000001E-003   -1.013489862928929E-017
  3.000000000000001E-003   -1.169169556487969E-017
  3.100000000000001E-003   -1.249772892627684E-017
  3.200000000000001E-003   -1.234086311337980E-017
  3.300000000000001E-003   -1.105672168125980E-017
  3.400000000000001E-003   -8.552263408877890E-018
  3.500000000000001E-003   -4.827038730446028E-018
  3.600000000000001E-003    1.023915355489129E-020
  3.700000000000001E-003    5.732142705856909E-018
  3.800000000000001E-003    1.199207529447610E-017
  3.900000000000001E-003    1.833448059336467E-017
  4.000000000000001E-003    2.421658532067938E-017
  4.100000000000001E-003    2.904159896924172E-017
  4.200000000000001E-003    3.220229031401431E-017
  4.300000000000001E-003    3.313271130126281E-017
  4.400000000000001E-003    3.136479317679158E-017
  4.500000000000001E-003    2.658559703879173E-017
  4.600000000000002E-003    1.869030361597040E-017
  4.700000000000001E-003    7.825641724434824E-018
  4.800000000000001E-003   -5.581501526971253E-018
  4.900000000000002E-003   -2.081503943372683E-017
  5.000000000000001E-003   -3.688402927330140E-017
  5.100000000000001E-003   -5.256274996025290E-017
  5.200000000000001E-003   -6.645709176582415E-017
  5.300000000000002E-003   -7.709563695783777E-017
  5.400000000000001E-003   -8.304158775588423E-017
  5.500000000000001E-003   -8.301931160297355E-017
  5.600000000000002E-003   -7.604723758781203E-017
  5.700000000000001E-003   -6.156695900449013E-017
  5.800000000000001E-003   -3.955733089469400E-017
  5.900000000000002E-003   -1.062173379263326E-017
  6.000000000000001E-003    2.396274852513241E-017
  6.100000000000001E-003    6.224425921906021E-017
  6.200000000000002E-003    1.016507071139717E-016
  6.300000000000002E-003    1.391041237789664E-016
  6.400000000000001E-003    1.711947518779010E-016
  6.500000000000001E-003    1.944099682593422E-016
  6.600000000000002E-003    2.054078293817902E-016
  6.700000000000001E-003    2.013196708452627E-016
  6.800000000000001E-003    1.800616188770798E-016
  6.900000000000002E-003    1.406306421423015E-016
  7.000000000000001E-003    8.335825975098806E-017
  7.100000000000001E-003    1.009433873801097E-017
  7.200000000000002E-003   -7.570539133600993E-017
  7.300000000000002E-003   -1.690104476349205E-016
  7.400000000000001E-003   -2.633817027938835E-016
  7.500000000000001E-003   -3.512798059950295E-016
  7.600000000000002E-003   -4.245128272931658E-016
  7.700000000000001E-003   -4.748077268457019E-016
  7.800000000000001E-003   -4.944774431282946E-016
  7.900000000000001E-003   -4.771431061417431E-016
  8.000000000000002E-003   -4.184595944280594E-016
  8.100000000000001E-003   -3.167848918504845E-016
  8.200000000000001E-003   -1.737287716320666E-016
  8.300000000000002E-003    5.483104253568695E-018
  8.400000000000001E-003    2.118877987348076E-016
  8.500000000000002E-003    4.329529467429321E-016
  8.600000000000002E-003    6.530627776394452E-016
  8.700000000000001E-003    8.543296507073234E-016
  8.800000000000002E-003    1.017711398405858E-015
  8.900000000000002E-003    1.124387241499198E-015
  9.000000000000001E-003    1.157316207247666E-015
  9.100000000000002E-003    1.102876631186757E-015
  9.200000000000002E-003    9.524638571693691E-016
  9.300000000000001E-003    7.039100375942045E-016
  9.400000000000002E-003    3.625852755286255E-016
  9.500000000000001E-003   -5.795389286939213E-017
  9.600000000000001E-003   -5.358830148511565E-016
  9.700000000000002E-003   -1.041680783787330E-015
  9.800000000000001E-003   -1.539395392323524E-015
  9.900000000000001E-003   -1.988599193372777E-015
  1.000000000000000E-002   -2.346968683781754E-015
  1.010000000000000E-002   -2.573369038782477E-015
  1.020000000000000E-002   -2.631264017157132E-015
  1.030000000000000E-002   -2.492227924896146E-015
  1.040000000000000E-002   -2.139293015573443E-015
  1.050000000000000E-002   -1.569849892067139E-015
  1.060000000000000E-002   -7.978124282616962E-016
  1.070000000000000E-002    1.452174667786423E-016
  1.080000000000000E-002    1.210008814687576E-015
  1.090000000000000E-002    2.331137421271928E-015
  1.100000000000000E-002    3.429873118639129E-015
  1.110000000000000E-002    4.418477846206489E-015
  1.120000000000000E-002    5.205772095760328E-015
  1.130000000000000E-002    5.703703904966914E-015
  1.140000000000000E-002    5.834545299613042E-015
  1.150000000000000E-002    5.538242998152748E-015
  1.160000000000000E-002    4.779381884569672E-015
  1.170000000000000E-002    3.553173921527434E-015
  1.180000000000000E-002    1.889884656690270E-015
  1.190000000000000E-002   -1.428408936291253E-016
  1.200000000000000E-002   -2.440211113830683E-015
  1.210000000000000E-002   -4.863388854270799E-015
  1.220000000000000E-002   -7.245599089452183E-015
  1.230000000000000E-002   -9.401165788112175E-015
  1.240000000000000E-002   -1.113716551446868E-014
  1.250000000000000E-002   -1.226714439924446E-014
  1.260000000000000E-002   -1.262612065645831E-014
  1.270000000000000E-002   -1.208588100591500E-014
  1.280000000000000E-002   -1.056945319522332E-014
  1.290000000000000E-002   -8.063528040347682E-015
  1.300000000000000E-002   -4.627636880540747E-015
  1.310000000000000E-002   -3.989557461684855E-016
  1.320000000000000E-002    4.408171900734021E-015
  1.330000000000000E-002    9.508628539770384E-015
  1.340000000000000E-002    1.455908324270916E-014
  1.350000000000000E-002    1.917653296875948E-014
  1.360000000000000E-002    2.296215405866594E-014
  1.370000000000000E-002    2.552930673199627E-014
  1.380000000000000E-002    2.653407308401769E-014
  1.390000000000000E-002    2.570631893870844E-014
  1.400000000000000E-002    2.287898505323353E-014
  1.410000000000000E-002    1.801318882987856E-014
  1.420000000000000E-002    1.121672663416374E-014
  1.430000000000000E-002    2.753790464791800E-015
  1.440000000000000E-002   -6.955860505893001E-015
  1.450000000000000E-002   -1.734946992531211E-014
  1.460000000000000E-002   -2.774599877455093E-014
  1.470000000000000E-002   -3.738258002393624E-014
  1.480000000000000E-002   -4.546132787066635E-014
  1.490000000000000E-002   -5.120418532085957E-014
  1.500000000000000E-002   -5.391266143335496E-014
  1.510000000000000E-002   -5.302856870676480E-014
  1.520000000000000E-002   -4.819135706507699E-014
  1.530000000000000E-002   -3.928742092860824E-014
  1.540000000000000E-002   -2.648682310292390E-014
  1.550000000000000E-002   -1.026334718279739E-014
  1.560000000000000E-002    8.605499415158967E-015
  1.570000000000000E-002    2.906071988867690E-014
  1.580000000000000E-002    4.980712352103073E-014
  1.590000000000000E-002    6.938092720802326E-014
  1.600000000000000E-002    8.623714125746596E-014
  1.610000000000000E-002    9.885255299478142E-014
  1.620000000000000E-002    1.058384470737712E-013
  1.630000000000000E-002    1.060559970619152E-013
  1.640000000000000E-002    9.872617110952270E-014
  1.650000000000000E-002    8.352559617834171E-014
  1.660000000000000E-002    6.065994643681644E-014
  1.670000000000000E-002    3.090708944170574E-014
  1.680000000000000E-002   -4.376328477571917E-015
  1.690000000000000E-002   -4.328928563312681E-014
  1.700000000000000E-002   -8.346362741428554E-014
  1.710000000000000E-002   -1.221831757670214E-013
  1.720000000000000E-002   -1.565405117401720E-013
  1.730000000000000E-002   -1.836241979626191E-013
  1.740000000000000E-002   -2.007261390395644E-013
  1.750000000000000E-002   -2.055563293799031E-013
  1.760000000000000E-002   -1.964503468572937E-013
  1.770000000000000E-002   -1.725539063257331E-013
  1.780000000000000E-002   -1.339689596907472E-013
  1.790000000000000E-002   -8.184678718581532E-014
  1.800000000000000E-002   -1.841600163153976E-014
  1.810000000000000E-002    5.306321769696366E-014
  1.820000000000000E-002    1.284229594496049E-013
  1.830000000000000E-002    2.027885732005331E-013
  1.840000000000000E-002    2.708504464122582E-013
  1.850000000000000E-002    3.271940640160382E-013
  1.860000000000000E-002    3.666710520295609E-013
  1.870000000000000E-002    3.847886514165198E-013