 -4.000000000000000E-002    0.000000000000000E+000
 -3.990000000000000E-002    0.000000000000000E+000
 -3.980000000000000E-002    0.000000000000000E+000
 -3.970000000000000E-002    0.000000000000000E+000
 -3.960000000000000E-002    0.000000000000000E+000
 -3.950000000000000E-002    0.000000000000000E+000
 -3.940000000000000E-002    0.000000000000000E+000
 -3.930000000000000E-002    1.509342768780115E-027
 -3.920000000000000E-002    2.714664317269118E-026
 -3.910000000000000E-002    2.509701208246987E-025
 -3.900000000000000E-002    1.592148242554727E-024
 -3.890000000000000E-002    7.798831912788645E-024
 -3.880000000000000E-002    3.144686935318712E-023
 -3.870000000000000E-002    1.086314289790122E-022
 -3.860000000000000E-002    3.302674478138834E-022
 -3.850000000000000E-002    9.008028625711764E-022
 -3.840000000000000E-002    2.235456390479235E-021
 -3.830000000000000E-002    5.101076697315213E-021
 -3.820000000000000E-002    1.078878372584939E-020
 -3.810000000000000E-002    2.127478846324312E-020
 -3.800000000000000E-002    3.927842589667618E-020
 -3.790000000000000E-002    6.806907195143001E-020
 -3.780000000000000E-002    1.108206876513635E-019
 -3.770000000000000E-002    1.692888458293957E-019
 -3.760000000000000E-002    2.416221511859679E-019
 -3.750000000000000E-002    3.192512034595480E-019
 -3.740000000000000E-002    3.830464043430563E-019
 -3.730000000000000E-002    3.992985370462379E-019
 -3.720000000000000E-002    3.165160456836215E-019
 -3.710000000000000E-002    6.445904387540020E-020
 -3.700000000000000E-002   -4.428813206644700E-019
 -3.690000000000000E-002   -1.298661620493451E-018
 -3.680000000000000E-002   -2.587683357557113E-018
 -3.670000000000000E-002   -4.363768007430464E-018
 -3.660000000000000E-002   -6.621282709681366E-018
 -3.650000000000000E-002   -9.263958347670736E-018
 -3.640000000000000E-002   -1.207599406302864E-017
 -3.630000000000000E-002   -1.470182387998165E-017
 -3.620000000000000E-002   -1.664118315831704E-017
 -3.610000000000000E-002   -1.726485429146366E-017
 -3.600000000000000E-002   -1.585332198651072E-017
 -3.590000000000000E-002   -1.165569798877015E-017
 -3.580000000000000E-002   -3.960433277393328E-018
 -3.570000000000000E-002    7.836270463407627E-018
 -3.560000000000000E-002    2.418196815793846E-017
 -3.550000000000000E-002    4.535649442566710E-017
 -3.540000000000000E-002    7.150805602589879E-017
 -3.530000000000000E-002    1.027341776730327E-016
 -3.520000000000000E-002    1.391849891997141E-016
 -3.510000000000000E-002    1.811422680383397E-016
 -3.500000000000000E-002    2.290039681528675E-016
 -3.490000000000000E-002    2.830868565142940E-016
 -3.480000000000000E-002    3.431571612073150E-016
 -3.470000000000000E-002    4.076185436588288E-016
 -3.460000000000000E-002    4.723327616882136E-016
 -3.450000000000000E-002    5.291272494117631E-016
 -3.440000000000000E-002    5.641454498947207E-016
 -3.430000000000000E-002    5.563175053916981E-016
 -3.420000000000000E-002    4.763462129260717E-016
 -3.410000000000000E-002    2.866986216627551E-016
 -3.400000000000000E-002   -5.686501063591341E-017
 -3.390000000000000E-002   -6.017352560421787E-016
 -3.380000000000000E-002   -1.392516901802172E-015
 -3.370000000000000E-002   -2.462617985727458E-015
 -3.360000000000000E-002   -3.823630223753137E-015
 -3.350000000000000E-002   -5.453216883175040E-015
 -3.340000000000000E-002   -7.282703685442625E-015
 -3.330000000000000E-002   -9.186040373021714E-015
 -3.320000000000000E-002   -1.097212596923049E-014
 -3.310000000000000E-002   -1.238269629270473E-014
 -3.300000000000000E-002   -1.309783320526694E-014
 -3.290000000000000E-002   -1.275079536493678E-014
 -3.280000000000000E-002   -1.095310294889325E-014
 -3.270000000000000E-002   -7.329803703975273E-015
 -3.260000000000000E-002   -1.563586365860930E-015
 -3.250000000000000E-002    6.554946050314587E-015
 -3.240000000000000E-002    1.707480730723181E-014
 -3.230000000000000E-002    2.983499109167829E-014
 -3.220000000000000E-002    4.442329520305182E-014
 -3.210000000000000E-002    6.014936412034086E-014
 -3.200000000000000E-002    7.603705878710472E-014
 -3.190000000000000E-002    9.084013344506573E-014
 -3.180000000000000E-002    1.030832597075291E-013
 -3.170000000000000E-002    1.111283850671407E-013
 -3.160000000000000E-002    1.132638111959366E-013
 -3.150000000000000E-002    1.078113851194178E-013
 -3.140000000000000E-002    9.324510340379153E-014
 -3.130000000000000E-002    6.831348574270085E-014
 -3.120000000000000E-002    3.215778110914056E-014
 -3.110000000000000E-002   -1.558113570476740E-014
 -3.100000000000000E-002   -7.467280825321165E-014
 -3.090000000000000E-002   -1.442271234898623E-013
 -3.080000000000000E-002   -2.226448842271225E-013
 -3.070000000000000E-002   -3.075867134427966E-013
 -3.060000000000000E-002   -3.959566143688041E-013
 -3.050000000000000E-002   -4.838956747229841E-013
 -3.040000000000000E-002   -5.667823299566349E-013
 -3.030000000000000E-002   -6.392382612190916E-013
 -3.020000000000000E-002   -6.951443605989826E-013
 -3.010000000000000E-002   -7.276764332301263E-013
 -3.000000000000000E-002   -7.293779750923277E-013
 -2.990000000000000E-002   -6.922940835326593E-013
 -2.980000000000000E-002   -6.081966555528033E-013
 -2.970000000000000E-002   -4.689331540044496E-013
 -2.960000000000000E-002   -2.669311675798488E-013
 -2.950000000000000E-002    4.117171964101338E-015
 -2.940000000000000E-002    3.483788806146599E-013
 -2.930000000000000E-002    7.668203040564700E-013
 -2.920000000000000E-002    1.255999703070519E-012
 -2.910000000000000E-002    1.806780201688022E-012
 -2.900000000000000E-002    2.403065985242372E-012
 -2.890000000000000E-002    3.020702770370426E-012
 -2.880000000000000E-002    3.626709971560759E-012
 -2.870000000000000E-002    4.179038927553399E-012
 -2.860000000000000E-002    4.627053877003902E-012
 -2.850000000000000E-002    4.912921169857551E-012
 -2.840000000000000E-002    4.974050071681949E-012
 -2.830000000000000E-002    4.746665543977669E-012
 -2.820000000000000E-002    4.170499887317032E-012
 -2.810000000000000E-002    3.194466156285853E-012
 -2.800000000000000E-002    1.783050837766065E-012
 -2.790000000000000E-002   -7.698895909026145E-014
 -2.780000000000000E-002   -2.370168275484072E-012
 -2.770000000000000E-002   -5.046703129425945E-012
 -2.760000000000000E-002   -8.018554233748393E-012
 -2.750000000000000E-002   -1.115779556917076E-011
 -2.740000000000000E-002   -1.429796031444766E-011
 -2.730000000000000E-002   -1.723885730535806E-011
 -2.720000000000000E-002   -1.975510185237317E-011
 -2.710000000000000E-002   -2.160829327686447E-011
 -2.700000000000000E-002   -2.256239883438414E-011
 -2.690000000000000E-002   -2.240150784823467E-011
 -2.680000000000000E-002   -2.094874519785679E-011
 -2.670000000000000E-002   -1.808482172822306E-011
 -2.660000000000000E-002   -1.376450555888162E-011
 -2.650000000000000E-002   -8.029254139597922E-012
 -2.640000000000000E-002   -1.014377018537595E-012
 -2.630000000000000E-002    7.050531206224447E-012
 -2.620000000000000E-002    1.584864261563013E-011
 -2.610000000000000E-002    2.499048538535171E-011
 -2.600000000000000E-002    3.403536086098601E-011
 -2.590000000000000E-002    4.251803551532318E-011
 -2.580000000000000E-002    4.997852508464232E-011
 -2.570000000000000E-002    5.599215999235476E-011
 -2.560000000000000E-002    6.019693822364588E-011
 -2.550000000000000E-002    6.231521277969924E-011
 -2.540000000000000E-002    6.216726421156491E-011
 -2.530000000000000E-002    5.967508918421838E-011
 -2.520000000000000E-002    5.485593315908836E-011
 -2.510000000000000E-002    4.780637781685234E-011
 -2.500000000000000E-002    3.867920464780850E-011
 -2.490000000000000E-002    2.765646592828904E-011
 -2.480000000000000E-002    1.492315073430931E-011
 -2.470000000000000E-002    6.461664758051025E-013
 -2.460000000000000E-002   -1.503682170398493E-011
 -2.450000000000000E-002   -3.201506132346813E-011
 -2.440000000000000E-002   -5.018688983411419E-011
 -2.430000000000000E-002   -6.942652223663469E-011
 -2.420000000000000E-002   -8.953802801720879E-011
 -2.410000000000000E-002   -1.102016094227541E-010
 -2.400000000000000E-002   -1.309194893801388E-010
 -2.390000000000000E-002   -1.509702233186253E-010
 -2.380000000000000E-002   -1.693810501935399E-010
 -2.370000000000000E-002   -1.849270251519481E-010
 -2.360000000000000E-002   -1.961639918930264E-010
 -2.350000000000000E-002   -2.014991962527490E-010
 -2.340000000000000E-002   -1.992992174908561E-010
 -2.330000000000000E-002   -1.880300316097108E-010
 -2.320000000000000E-002   -1.664191958266337E-010
 -2.310000000000000E-002   -1.336257501201383E-010
 -2.300000000000000E-002   -8.940005859113938E-011
 -2.290000000000000E-002   -3.421459436505954E-011
 -2.280000000000000E-002    3.065300972727525E-011
 -2.270000000000000E-002    1.031001435981054E-010
 -2.260000000000000E-002    1.802530378779326E-010
 -2.250000000000000E-002    2.585975124720129E-010
 -2.240000000000000E-002    3.341816059811246E-010
 -2.230000000000000E-002    4.028764641112540E-010
 -2.220000000000000E-002    4.606738247338229E-010
 -2.210000000000000E-002    5.039924961697521E-010
 -2.200000000000000E-002    5.299624541132983E-010
 -2.190000000000000E-002    5.366554708964682E-010
 -2.180000000000000E-002    5.232347579857774E-010
 -2.170000000000000E-002    4.900034485515493E-010
 -2.160000000000000E-002    4.383424070135558E-010
 -2.150000000000000E-002    3.705403926680551E-010
 -2.140000000000000E-002    2.895327160954505E-010
 -2.130000000000000E-002    1.985770379062865E-010
 -2.120000000000000E-002    1.009047592424039E-010
 -2.110000000000000E-002   -6.080745770006104E-013
 -2.100000000000000E-002   -1.037056016980889E-010
 -2.090000000000000E-002   -2.069131802225566E-010
 -2.080000000000000E-002   -3.095656709977594E-010
 -2.070000000000000E-002   -4.116899705591556E-010
 -2.060000000000000E-002   -5.137461556979312E-010
 -2.050000000000000E-002   -6.162528757115330E-010
 -2.040000000000000E-002   -7.193393440523603E-010
 -2.030000000000000E-002   -8.222823011237409E-010
 -2.020000000000000E-002   -9.230935315940644E-010
 -2.010000000000000E-002   -1.018225650522349E-009
 -2.000000000000000E-002   -1.102455076744739E-009
 -1.990000000000000E-002   -1.168986209692940E-009
 -1.980000000000000E-002   -1.209797005323151E-009
 -1.970000000000000E-002   -1.216218696913067E-009
 -1.960000000000000E-002   -1.179712302438360E-009
 -1.950000000000000E-002   -1.092776266304878E-009
 -1.940000000000000E-002   -9.498972469958772E-010
 -1.930000000000000E-002   -7.484406502099183E-010
 -1.920000000000000E-002   -4.893747590870111E-010
 -1.910000000000000E-002   -1.777307599621094E-010
 -1.900000000000000E-002    1.772781269596049E-010
 -1.890000000000000E-002    5.625233151614124E-010
 -1.880000000000000E-002    9.616193862208794E-010
 -1.870000000000000E-002    1.355936929880728E-009
 -1.860000000000000E-002    1.725891164219116E-009
 -1.850000000000000E-002    2.052391768317556E-009
 -1.840000000000000E-002    2.318315930053015E-009
 -1.830000000000000E-002    2.509853861691616E-009
 -1.820000000000000E-002    2.617586104858545E-009
 -1.810000000000000E-002    2.637170311014991E-009
 -1.800000000000000E-002    2.569557602453730E-009
 -1.790000000000000E-002    2.420704034013703E-009
 -1.780000000000000E-002    2.200800749684890E-009
 -1.770000000000000E-002    1.923099110143488E-009
 -1.760000000000000E-002    1.602458027159520E-009
 -1.750000000000000E-002    1.253774883908777E-009
 -1.740000000000000E-002    8.904803864640951E-010
 -1.730000000000000E-002    5.232759497531854E-010
 -1.720000000000000E-002    1.592678944250308E-010
 -1.710000000000000E-002   -1.983889306141177E-010
 -1.700000000000000E-002   -5.502843936933877E-010
 -1.690000000000000E-002   -8.999951606162539E-010
 -1.680000000000000E-002   -1.252856923963414E-009
 -1.670000000000000E-002   -1.614408427514153E-009
 -1.660000000000000E-002   -1.988695607098635E-009
 -1.650000000000000E-002   -2.376652782767364E-009
 -1.640000000000000E-002   -2.774775691221783E-009
 -1.630000000000000E-002   -3.174279486478086E-009
 -1.620000000000000E-002   -3.560886195253741E-009
 -1.610000000000000E-002   -3.915315947946573E-009
 -1.600000000000000E-002   -4.214479685643431E-009
 -1.590000000000000E-002   -4.433283423143375E-009
 -1.580000000000000E-002   -4.546879620468673E-009
 -1.570000000000000E-002   -4.533141747680154E-009
 -1.560000000000000E-002   -4.375096431921158E-009
 -1.550000000000000E-002   -4.063043027239452E-009
 -1.540000000000000E-002   -3.596110792410958E-009
 -1.530000000000000E-002   -2.983056616398927E-009
 -1.520000000000000E-002   -2.242184533535685E-009
 -1.510000000000000E-002   -1.400358699287239E-009
 -1.500000000000000E-002   -4.911833396064610E-010
 -1.490000000000000E-002    4.474823488185429E-010
 -1.480000000000000E-002    1.376430511201442E-009
 -1.470000000000000E-002    2.258130504339647E-009
 -1.460000000000000E-002    3.059560435626311E-009
 -1.450000000000000E-002    3.754536899960798E-009
 -1.440000000000000E-002    4.325294352689566E-009
 -1.430000000000000E-002    4.763144002188692E-009
 -1.420000000000000E-002    5.068140081839126E-009
 -1.410000000000000E-002    5.247804944612032E-009
 -1.400000000000000E-002    5.315064917678439E-009
 -1.390000000000000E-002    5.285652791425508E-009
 -1.380000000000000E-002    5.175297447699468E-009
 -1.370000000000000E-002    4.997058261816498E-009
 -1.360000000000000E-002    4.759156509421991E-009
 -1.350000000000000E-002    4.463608568665949E-009
 -1.340000000000000E-002    4.105884034543899E-009
 -1.330000000000000E-002    3.675705033280694E-009
 -1.320000000000000E-002    3.158973078772933E-009
 -1.310000000000000E-002    2.540685129625187E-009
 -1.300000000000000E-002    1.808583658173812E-009
 -1.290000000000000E-002    9.571962195336543E-010
 -1.280000000000000E-002   -8.133435037920033E-012
 -1.270000000000000E-002   -1.067628097297614E-009
 -1.260000000000000E-002   -2.184249947086924E-009
 -1.250000000000000E-002   -3.301954425169207E-009
 -1.240000000000000E-002   -4.345204502576165E-009
 -1.230000000000000E-002   -5.219791802863650E-009
 -1.220000000000000E-002   -5.814858982153592E-009
 -1.210000000000000E-002   -6.005882299169468E-009
 -1.200000000000000E-002   -5.658265834397175E-009
 -1.190000000000000E-002   -4.631098024078539E-009
 -1.180000000000000E-002   -2.780609988437366E-009
 -1.170000000000000E-002    3.712567390842281E-011
 -1.160000000000000E-002    3.964626544481260E-009
 -1.150000000000000E-002    9.142873159860403E-009
 -1.140000000000000E-002    1.571270987468126E-008
 -1.130000000000000E-002    2.381776004409066E-008
 -1.120000000000000E-002    3.360868521677553E-008
 -1.110000000000000E-002    4.524835319840430E-008
 -1.100000000000000E-002    5.891752624242424E-008
 -1.090000000000000E-002    7.482048024744167E-008
 -1.080000000000000E-002    9.318997449819138E-008
 -1.070000000000000E-002    1.142910033734457E-007
 -1.060000000000000E-002    1.384229458412592E-007
 -1.050000000000000E-002    1.659197891329511E-007
 -1.040000000000000E-002    1.971481680119664E-007
 -1.030000000000000E-002    2.325034641843834E-007
 -1.020000000000000E-002    2.724040578333446E-007
 -1.010000000000000E-002    3.172840651404719E-007
 -1.000000000000000E-002    3.675855128467029E-007
 -9.899999999999999E-003    4.237500067773313E-007
 -9.800000000000000E-003    4.862110713227881E-007
 -9.699999999999999E-003    5.553876405837209E-007
 -9.599999999999999E-003    6.316790424983188E-007
 -9.500000000000000E-003    7.154622926038793E-007
 -9.399999999999999E-003    8.070917642542588E-007
 -9.299999999999999E-003    9.069011125336263E-007
 -9.200000000000000E-003    1.015207470841582E-006
 -9.099999999999999E-003    1.132317967388368E-006
 -8.999999999999999E-003    1.258536960246546E-006
 -8.900000000000000E-003    1.394174732433749E-006
 -8.799999999999999E-003    1.539556492271474E-006
 -8.699999999999999E-003    1.695030576601096E-006
 -8.600000000000000E-003    1.860975684025880E-006
 -8.499999999999999E-003    2.037807101644460E-006
 -8.399999999999999E-003    2.225980981134923E-006
 -8.300000000000000E-003    2.425997102623797E-006
 -8.199999999999999E-003    2.638400085520732E-006
 -8.100000000000000E-003    2.863778594283217E-006
 -8.000000000000000E-003    3.102764000517524E-006
 -7.899999999999999E-003    3.356029471241311E-006
 -7.800000000000000E-003    3.624287768963202E-006
 -7.699999999999999E-003    3.908290630132735E-006
 -7.599999999999999E-003    4.208829304169211E-006
 -7.499999999999999E-003    4.526737089379811E-006
 -7.399999999999999E-003    4.862892073536225E-006
 -7.299999999999999E-003    5.218223831174622E-006
 -7.199999999999999E-003    5.593721641777026E-006
 -7.100000000000000E-003    5.990442177353870E-006
 -6.999999999999999E-003    6.409520641470849E-006
 -6.899999999999999E-003    6.852181184705061E-006
 -6.800000000000000E-003    7.319745915413816E-006
 -6.699999999999999E-003    7.813646231400643E-006
 -6.599999999999999E-003    8.335428134232840E-006
 -6.499999999999999E-003    8.886760857997884E-006
 -6.399999999999999E-003    9.469436801553730E-006
 -6.299999999999999E-003    1.008537499181866E-005
 -6.199999999999999E-003    1.073661978532274E-005
 -6.100000000000000E-003    1.142533674680372E-005
 -5.999999999999999E-003    1.215380843015868E-005
 -5.899999999999999E-003    1.292442469585627E-005
 -5.800000000000000E-003    1.373968122525761E-005
 -5.699999999999999E-003    1.460217207843374E-005
 -5.599999999999999E-003    1.551458306560321E-005
 -5.499999999999999E-003    1.647969402238126E-005
 -5.399999999999999E-003    1.750037321278694E-005
 -5.299999999999999E-003    1.857958569240961E-005
 -5.199999999999999E-003    1.972039773652131E-005
 -5.099999999999999E-003    2.092598851523035E-005
 -4.999999999999999E-003    2.219965680006305E-005
 -4.899999999999999E-003    2.354484508163165E-005
 -4.799999999999999E-003    2.496514736499821E-005
 -4.699999999999999E-003    2.646433142270763E-005
 -4.599999999999999E-003    2.804635842210211E-005
 -4.499999999999999E-003    2.971538988622934E-005
 -4.399999999999999E-003    3.147581150029793E-005
 -4.299999999999999E-003    3.333224329379324E-005
 -4.199999999999999E-003    3.528954617433020E-005
 -4.099999999999999E-003    3.735283112716929E-005
 -3.999999999999999E-003    3.952745454876464E-005
 -3.899999999999999E-003    4.181903310870758E-005
 -3.799999999999999E-003    4.423343067859370E-005
 -3.699999999999999E-003    4.677676152418533E-005
 -3.599999999999999E-003    4.945538689427002E-005
 -3.499999999999999E-003    5.227591340704251E-005
 -3.399999999999999E-003    5.524519299526424E-005
 -3.299999999999999E-003    5.837032918419333E-005
 -3.199999999999999E-003    6.165868124151796E-005
 -3.099999999999999E-003    6.511787802346320E-005
 -2.999999999999999E-003    6.875583083622216E-005
 -2.899999999999999E-003    7.258076660751122E-005
 -2.799999999999999E-003    7.660123417365617E-005
 -2.699999999999999E-003    8.082613323500231E-005
 -2.599999999999999E-003    8.526476623206781E-005
 -2.499999999999999E-003    8.992683693665201E-005
 -2.399999999999999E-003    9.482249940586612E-005
 -2.299999999999999E-003    9.996239742223544E-005
 -2.199999999999999E-003    1.053576601828895E-004
 -2.099999999999999E-003    1.110199536464999E-004
 -1.999999999999999E-003    1.169615091807585E-004
 -1.899999999999999E-003    1.231951068449909E-004
 -1.799999999999999E-003    1.297341117037275E-004
 -1.699999999999999E-003    1.365925019958651E-004
 -1.599999999999999E-003    1.437848714668589E-004
 -1.499999999999999E-003    1.513264142051299E-004
 -1.399999999999999E-003    1.592329692256408E-004
 -1.299999999999999E-003    1.675210209174864E-004
 -1.199999999999999E-003    1.762077029162352E-004
 -1.099999999999999E-003    1.853108185078790E-004
 -9.999999999999989E-004    1.948488681236712E-004
 -8.999999999999990E-004    2.048410150219265E-004
 -7.999999999999990E-004    2.153072235705211E-004
 -6.999999999999989E-004    2.262681044111005E-004
 -5.999999999999990E-004    2.377451225304452E-004
 -4.999999999999989E-004    2.497604639808809E-004
 -3.999999999999989E-004    2.623371249046272E-004
 -2.999999999999989E-004    2.754989799979838E-004
 -1.999999999999989E-004    2.892707070138633E-004
 -9.999999999999892E-005    3.036778931441948E-004
  1.084202172485504E-018    3.187469628365031E-004
  1.000000000000011E-004    3.345052935940466E-004
  2.000000000000011E-004    3.509811588296113E-004
  3.000000000000011E-004    3.682037740460422E-004
  4.000000000000011E-004    3.862033004719249E-004
  5.000000000000011E-004    4.050108761473140E-004
  6.000000000000011E-004    4.246585985658700E-004
  7.000000000000011E-004    4.451796184058990E-004
  8.000000000000011E-004    4.666079517341167E-004
  9.000000000000012E-004    4.889788005417454E-004
  1.000000000000001E-003    5.123282912125092E-004
  1.100000000000001E-003    5.366935940468299E-004
  1.200000000000001E-003    5.621129730808681E-004
  1.300000000000001E-003    5.886257329476448E-004
  1.400000000000001E-003    6.162722276182617E-004
  1.500000000000001E-003    6.450939490384609E-004
  1.600000000000001E-003    6.751333374600772E-004
  1.700000000000001E-003    7.064340652094788E-004
  1.800000000000001E-003    7.390408775372359E-004
  1.900000000000001E-003    7.729997244884480E-004
  2.000000000000001E-003    8.083576191585259E-004
  2.100000000000001E-003    8.451627938895167E-004
  2.200000000000001E-003    8.834648236308172E-004
  2.300000000000001E-003    9.233145055596719E-004
  2.400000000000001E-003    9.647638789834031E-004
  2.500000000000001E-003    1.007866607324763E-003
  2.600000000000001E-003    1.052677535456245E-003
  2.700000000000001E-003    1.099253286237066E-003
  2.800000000000001E-003    1.147651840603155E-003
  2.900000000000001E-003    1.197932808757610E-003
  3.000000000000001E-003    1.250157606165369E-003
  3.100000000000001E-003    1.304389078210185E-003
  3.200000000000001E-003    1.360691941862672E-003
  3.300000000000001E-003    1.419132537365695E-003
  3.400000000000001E-003    1.479778918772011E-003
  3.500000000000001E-003    1.542700930004198E-003
  3.600000000000001E-003    1.607970035424766E-003
  3.700000000000001E-003    1.675659342580412E-003
  3.800000000000001E-003    1.745843570103178E-003
  3.900000000000001E-003    1.818599288935694E-003
  4.000000000000001E-003    1.894004560088130E-003
  4.100000000000001E-003    1.972138830073947E-003
  4.200000000000001E-003    2.053083785215108E-003
  4.300000000000001E-003    2.136922321480875E-003
  4.400000000000001E-003    2.223739303266188E-003
  4.500000000000001E-003    2.313621296071897E-003
  4.600000000000002E-003    2.406656600955827E-003
  4.700000000000001E-003    2.502935343540312E-003
  4.800000000000001E-003    2.602549718175855E-003
  4.900000000000002E-003    2.705593622271271E-003
  5.000000000000001E-003    2.812162824095495E-003
  5.100000000000001E-003    2.922355287530253E-003
  5.200000000000001E-003    3.036270926336352E-003
  5.300000000000002E-003    3.154011368779911E-003
  5.400000000000001E-003    3.275680243109882E-003
  5.500000000000001E-003    3.401382643695322E-003
  5.600000000000002E-003    3.531225913292387E-003
  5.700000000000001E-003    3.665318424070923E-003
  5.800000000000001E-003    3.803770578746179E-003
  5.900000000000002E-003    3.946693886551853E-003
  6.000000000000001E-003    4.094201463615133E-003
  6.100000000000001E-003    4.246406928400155E-003
  6.200000000000002E-003    4.403425784622335E-003
  6.300000000000002E-003    4.565373602588897E-003
  6.400000000000001E-003    4.732367825613279E-003
  6.500000000000001E-003    4.904526215825987E-003
  6.600000000000002E-003    5.081967396629610E-003
  6.700000000000001E-003    5.264810865855134E-003
  6.800000000000001E-003    5.453176464555738E-003
  6.900000000000002E-003    5.647184571759041E-003
  7.000000000000001E-003    5.846956753532683E-003
  7.100000000000001E-003    6.052615093976334E-003
  7.200000000000002E-003    6.264281432976542E-003
  7.300000000000002E-003    6.482078551315725E-003
  7.400000000000001E-003    6.706129225653032E-003
  7.500000000000001E-003    6.936557611072557E-003
  7.600000000000002E-003    7.173486296634236E-003
  7.700000000000001E-003    7.417037842041573E-003
  7.800000000000001E-003    7.667335416762147E-003
  7.900000000000001E-003    7.924502004918104E-003
  8.000000000000002E-003    8.188659492629808E-003
  8.100000000000001E-003    8.459928916316943E-003
  8.200000000000001E-003    8.738430333282615E-003
  8.300000000000002E-003    9.024283491954683E-003
  8.400000000000001E-003    9.317606075401717E-003
  8.500000000000002E-003    9.618514418092921E-003
  8.600000000000002E-003    9.927124053829870E-003
  8.700000000000001E-003    1.024354880653074E-002
  8.800000000000002E-003    1.056790122365175E-002
  8.900000000000002E-003    1.090029078127891E-002
  9.000000000000001E-003    1.124082592665251E-002
  9.100000000000002E-003    1.158961418006414E-002
  9.200000000000002E-003    1.194675942692811E-002
  9.300000000000001E-003    1.231236478873034E-002
  9.400000000000002E-003    1.268653128905042E-002
  9.500000000000001E-003    1.306935703266685E-002
  9.600000000000001E-003    1.346093796890838E-002
  9.700000000000002E-003    1.386136909555728E-002
  9.800000000000001E-003    1.427074041685741E-002
  9.900000000000001E-003    1.468914141613310E-002
  1.000000000000000E-002    1.511665727489624E-002
  1.010000000000000E-002    1.555337108137069E-002
  1.020000000000000E-002    1.599936226571616E-002
  1.030000000000000E-002    1.645470654473923E-002
  1.040000000000000E-002    1.691947690073326E-002
  1.050000000000000E-002    1.739374173023181E-002
  1.060000000000000E-002    1.787756606420509E-002
  1.070000000000000E-002    1.837101026368577E-002
  1.080000000000000E-002    1.887413060077438E-002
  1.090000000000000E-002    1.938698104296832E-002
  1.100000000000000E-002    1.990960840143071E-002
  1.110000000000000E-002    2.044205774558626E-002
  1.120000000000000E-002    2.098436742948470E-002
  1.130000000000000E-002    2.153657252216423E-002
  1.140000000000000E-002    2.209870180434470E-002
  1.150000000000000E-002    2.267078039093070E-002
  1.160000000000000E-002    2.325282800394813E-002
  1.170000000000000E-002    2.384485954759932E-002
  1.180000000000000E-002    2.444688314124262E-002
  1.190000000000000E-002    2.505890351521289E-002
  1.200000000000000E-002    2.568091698381718E-002
  1.210000000000000E-002    2.631291765483293E-002
  1.220000000000000E-002    2.695488912773580E-002
  1.230000000000000E-002    2.760681071721124E-002
  1.240000000000000E-002    2.826865582795329E-002
  1.250000000000000E-002    2.894039033046458E-002
  1.260000000000000E-002    2.962197426157323E-002
  1.270000000000000E-002    3.031336156229006E-002
  1.280000000000000E-002    3.101449736947877E-002
  1.290000000000000E-002    3.172532324072413E-002
  1.300000000000000E-002    3.244577149890669E-002
  1.310000000000000E-002    3.317576953830077E-002
  1.320000000000000E-002    3.391523439218990E-002
  1.330000000000000E-002    3.466408059126110E-002
  1.340000000000000E-002    3.542221504925830E-002
  1.350000000000000E-002    3.618953701361288E-002
  1.360000000000000E-002    3.696593805174091E-002
  1.370000000000000E-002    3.775130312644993E-002
  1.380000000000000E-002    3.854550935320109E-002
  1.390000000000000E-002    3.934843075111945E-002
  1.400000000000000E-002    4.015993055416984E-002
  1.410000000000000E-002    4.097986504885518E-002
  1.420000000000000E-002    4.180808653534755E-002
  1.430000000000000E-002    4.264443680898104E-002
  1.440000000000000E-002    4.348875426206150E-002
  1.450000000000000E-002    4.434086991948764E-002
  1.460000000000000E-002    4.520060367811996E-002
  1.470000000000000E-002    4.606777350206634E-002
  1.480000000000000E-002    4.694219292759363E-002
  1.490000000000000E-002    4.782366495687140E-002
  1.500000000000000E-002    4.871198968089993E-002
  1.510000000000000E-002    4.960695938710846E-002
  1.520000000000000E-002    5.050836487083157E-002
  1.530000000000000E-002    5.141598926371812E-002
  1.540000000000000E-002    5.232961472890788E-002
  1.550000000000000E-002    5.324901483380160E-002
  1.560000000000000E-002    5.417396537176899E-002
  1.570000000000000E-002    5.510423285548286E-002
  1.580000000000000E-002    5.603958551324557E-002
  1.590000000000000E-002    5.697978724371826E-002
  1.600000000000000E-002    5.792459978161643E-002
  1.610000000000000E-002    5.887378432562069E-002
  1.620000000000000E-002    5.982709629063363E-002
  1.630000000000000E-002    6.078429076172175E-002
  1.640000000000000E-002    6.174512488262452E-002
  1.650000000000000E-002    6.270935410160686E-002
  1.660000000000000E-002    6.367673821446036E-002
  1.670000000000000E-002    6.464702442808823E-002
  1.680000000000000E-002    6.561997640984366E-002
  1.690000000000000E-002    6.659534687282997E-002
  1.700000000000000E-002    6.757289703675849E-002
  1.710000000000000E-002    6.855239400988938E-002
  1.720000000000000E-002    6.953359879777814E-002
  1.730000000000000E-002    7.051628125667801E-002
  1.740000000000000E-002    7.150021365537919E-002
  1.750000000000000E-002    7.248517434200827E-002
  1.760000000000000E-002    7.347095259700545E-002
  1.770000000000000E-002    7.445733531662448E-002
  1.780000000000000E-002    7.544411569879708E-002
  1.790000000000000E-002    7.643110060551928E-002
  1.800000000000000E-002    7.741809427982524E-002
  1.810000000000000E-002    7.840491857579783E-002
  1.820000000000000E-002    7.939140174395663E-002
  1.830000000000000E-002    8.037737795653037E-002
  1.840000000000000E-002    8.136269865294200E-002
  1.850000000000000E-002    8.234721343535592E-002
  1.860000000000000E-002    8.333078775846625E-002
  1.870000000000000E-002    8.431329806167953E-002