 -4.000000000000000E-002    0.000000000000000E+000
 -3.990000000000000E-002    0.000000000000000E+000
 -3.980000000000000E-002    0.000000000000000E+000
 -3.970000000000000E-002    0.000000000000000E+000
 -3.960000000000000E-002    0.000000000000000E+000
 -3.950000000000000E-002    0.000000000000000E+000
 -3.940000000000000E-002    0.000000000000000E+000
 -3.930000000000000E-002    0.000000000000000E+000
 -3.920000000000000E-002    0.000000000000000E+000
 -3.910000000000000E-002    0.000000000000000E+000
 -3.900000000000000E-002    0.000000000000000E+000
 -3.890000000000000E-002    0.000000000000000E+000
 -3.880000000000000E-002    0.000000000000000E+000
 -3.870000000000000E-002    0.000000000000000E+000
 -3.860000000000000E-002    0.000000000000000E+000
 -3.850000000000000E-002    0.000000000000000E+000
 -3.840000000000000E-002    0.000000000000000E+000
 -3.830000000000000E-002    0.000000000000000E+000
 -3.820000000000000E-002    0.000000000000000E+000
 -3.810000000000000E-002    0.000000000000000E+000
 -3.800000000000000E-002    0.000000000000000E+000
 -3.790000000000000E-002    0.000000000000000E+000
 -3.780000000000000E-002    0.000000000000000E+000
 -3.770000000000000E-002    0.000000000000000E+000
 -3.760000000000000E-002    0.000000000000000E+000
 -3.750000000000000E-002    0.000000000000000E+000
 -3.740000000000000E-002    0.000000000000000E+000
 -3.730000000000000E-002    0.000000000000000E+000
 -3.720000000000000E-002    0.000000000000000E+000
 -3.710000000000000E-002    0.000000000000000E+000
 -3.700000000000000E-002    0.000000000000000E+000
 -3.690000000000000E-002    0.000000000000000E+000
 -3.680000000000000E-002    0.000000000000000E+000
 -3.670000000000000E-002    0.000000000000000E+000
 -3.660000000000000E-002    0.000000000000000E+000
 -3.650000000000000E-002    0.000000000000000E+000
 -3.640000000000000E-002    0.000000000000000E+000
 -3.630000000000000E-002    0.000000000000000E+000
 -3.620000000000000E-002    0.000000000000000E+000
 -3.610000000000000E-002    0.000000000000000E+000
 -3.600000000000000E-002    0.000000000000000E+000
 -3.590000000000000E-002    0.000000000000000E+000
 -3.580000000000000E-002    0.000000000000000E+000
 -3.570000000000000E-002    0.000000000000000E+000
 -3.560000000000000E-002    0.000000000000000E+000
 -3.550000000000000E-002    0.000000000000000E+000
 -3.540000000000000E-002    0.000000000000000E+000
 -3.530000000000000E-002    0.000000000000000E+000
 -3.520000000000000E-002    0.000000000000000E+000
 -3.510000000000000E-002    0.000000000000000E+000
 -3.500000000000000E-002    0.000000000000000E+000
 -3.490000000000000E-002    0.000000000000000E+000
 -3.480000000000000E-002    0.000000000000000E+000
 -3.470000000000000E-002    0.000000000000000E+000
 -3.460000000000000E-002    0.000000000000000E+000
 -3.450000000000000E-002    0.000000000000000E+000
 -3.440000000000000E-002    0.000000000000000E+000
 -3.430000000000000E-002    0.000000000000000E+000
 -3.420000000000000E-002    0.000000000000000E+000
 -3.410000000000000E-002    0.000000000000000E+000
 -3.400000000000000E-002    0.000000000000000E+000
 -3.390000000000000E-002    0.000000000000000E+000
 -3.380000000000000E-002    0.000000000000000E+000
 -3.370000000000000E-002    0.000000000000000E+000
 -3.360000000000000E-002    0.000000000000000E+000
 -3.350000000000000E-002    0.000000000000000E+000
 -3.340000000000000E-002    0.000000000000000E+000
 -3.330000000000000E-002    0.000000000000000E+000
 -3.320000000000000E-002    0.000000000000000E+000
 -3.310000000000000E-002    0.000000000000000E+000
 -3.300000000000000E-002    0.000000000000000E+000
 -3.290000000000000E-002    0.000000000000000E+000
 -3.280000000000000E-002    0.000000000000000E+000
 -3.270000000000000E-002    0.000000000000000E+000
 -3.260000000000000E-002    0.000000000000000E+000
 -3.250000000000000E-002    0.000000000000000E+000
 -3.240000000000000E-002    0.000000000000000E+000
 -3.230000000000000E-002    0.000000000000000E+000
 -3.220000000000000E-002    0.000000000000000E+000
 -3.210000000000000E-002    0.000000000000000E+000
 -3.200000000000000E-002    0.000000000000000E+000
 -3.190000000000000E-002    0.000000000000000E+000
 -3.180000000000000E-002    0.000000000000000E+000
 -3.170000000000000E-002    0.000000000000000E+000
 -3.160000000000000E-002    0.000000000000000E+000
 -3.150000000000000E-002    0.000000000000000E+000
 -3.140000000000000E-002    0.000000000000000E+000
 -3.130000000000000E-002    0.000000000000000E+000
 -3.120000000000000E-002    0.000000000000000E+000
 -3.110000000000000E-002    0.000000000000000E+000
 -3.100000000000000E-002    0.000000000000000E+000
 -3.090000000000000E-002    0.000000000000000E+000
 -3.080000000000000E-002    0.000000000000000E+000
 -3.070000000000000E-002    0.000000000000000E+000
 -3.060000000000000E-002    0.000000000000000E+000
 -3.050000000000000E-002    0.000000000000000E+000
 -3.040000000000000E-002    0.000000000000000E+000
 -3.030000000000000E-002    0.000000000000000E+000
 -3.020000000000000E-002    0.000000000000000E+000
 -3.010000000000000E-002    0.000000000000000E+000
 -3.000000000000000E-002    0.000000000000000E+000
 -2.990000000000000E-002    0.000000000000000E+000
 -2.980000000000000E-002    0.000000000000000E+000
 -2.970000000000000E-002    0.000000000000000E+000
 -2.960000000000000E-002    0.000000000000000E+000
 -2.950000000000000E-002    0.000000000000000E+000
 -2.940000000000000E-002    0.000000000000000E+000
 -2.930000000000000E-002    0.000000000000000E+000
 -2.920000000000000E-002    0.000000000000000E+000
 -2.910000000000000E-002   -1.634961234484166E-048
 -2.900000000000000E-002   -1.303015909250128E-047
 -2.890000000000000E-002   -2.606031818500255E-047
 -2.880000000000000E-002   -6.191228100017702E-047
 -2.870000000000000E-002   -1.025601301826158E-046
 -2.860000000000000E-002   -1.511647908650989E-046
 -2.850000000000000E-002   -2.128904851995384E-046
 -2.840000000000000E-002   -2.599813523001172E-046
 -2.830000000000000E-002   -2.411518293769388E-046
 -2.820000000000000E-002   -1.208242692401323E-046
 -2.810000000000000E-002    1.800766351496492E-046
 -2.800000000000000E-002    8.234118998935351E-046
 -2.790000000000000E-002    1.785080775009613E-045
 -2.780000000000000E-002    3.100096179234909E-045
 -2.770000000000000E-002    4.737265341152348E-045
 -2.760000000000000E-002    6.361620629916018E-045
 -2.750000000000000E-002    7.759228706706494E-045
 -2.740000000000000E-002    7.784355406706104E-045
 -2.730000000000000E-002    5.942181328813821E-045
 -2.720000000000000E-002    4.824211591220816E-046
 -2.710000000000000E-002   -1.039018401452938E-044
 -2.700000000000000E-002   -2.666543622469250E-044
 -2.690000000000000E-002   -4.999252422480118E-044
 -2.680000000000000E-002   -8.041173274801235E-044
 -2.670000000000000E-002   -1.136755872215781E-043
 -2.660000000000000E-002   -1.454395012160514E-043
 -2.650000000000000E-002   -1.674832675006030E-043
 -2.640000000000000E-002   -1.663632727414688E-043
 -2.630000000000000E-002   -1.260456546118646E-043
 -2.620000000000000E-002   -2.724603274603298E-044
 -2.610000000000000E-002    1.477436757813030E-043
 -2.600000000000000E-002    4.140818377844539E-043
 -2.590000000000000E-002    7.755308898389209E-043
 -2.580000000000000E-002    1.222203163814802E-042
 -2.570000000000000E-002    1.723041066039353E-042
 -2.560000000000000E-002    2.224171413408738E-042
 -2.550000000000000E-002    2.645132336154330E-042
 -2.540000000000000E-002    2.882163119639419E-042
 -2.530000000000000E-002    2.812641493270021E-042
 -2.520000000000000E-002    2.297108570550176E-042
 -2.510000000000000E-002    1.182714143743871E-042
 -2.500000000000000E-002   -7.123107047777087E-043
 -2.490000000000000E-002   -3.623398706453619E-042
 -2.480000000000000E-002   -7.881587209044654E-042
 -2.470000000000000E-002   -1.396997608376329E-041
 -2.460000000000000E-002   -2.255789025014405E-041
 -2.450000000000000E-002   -3.448370928797558E-041
 -2.440000000000000E-002   -5.060094998713054E-041
 -2.430000000000000E-002   -7.140375825723790E-041
 -2.420000000000000E-002   -9.632505959970058E-041
 -2.410000000000000E-002   -1.226386870555504E-040
 -2.400000000000000E-002   -1.439540484053973E-040
 -2.390000000000000E-002   -1.484462737020918E-040
 -2.380000000000000E-002   -1.171931522429572E-040
 -2.370000000000000E-002   -2.327200412023206E-041
 -2.360000000000000E-002    1.673746627628642E-040
 -2.350000000000000E-002    4.919964239229700E-040
 -2.340000000000000E-002    9.825778858613350E-040
 -2.330000000000000E-002    1.651582032435852E-039
 -2.320000000000000E-002    2.471357519884808E-039
 -2.310000000000000E-002    3.348094453655360E-039
 -2.300000000000000E-002    4.093503300999742E-039
 -2.290000000000000E-002    4.400487749271389E-039
 -2.280000000000000E-002    3.832733832390050E-039
 -2.270000000000000E-002    1.841636072168193E-039
 -2.260000000000000E-002   -2.173669652235812E-039
 -2.250000000000000E-002   -8.747708666632485E-039
 -2.240000000000000E-002   -1.816078082991185E-038
 -2.230000000000000E-002   -3.018194610565060E-038
 -2.220000000000000E-002   -4.376134911975542E-038
 -2.210000000000000E-002   -5.671620573864416E-038
 -2.200000000000000E-002   -6.548633403838884E-038
 -2.190000000000000E-002   -6.506792692195198E-038
 -2.180000000000000E-002   -4.926065175022413E-038
 -2.170000000000000E-002   -1.137221912966978E-038
 -2.160000000000000E-002    5.449685683100051E-038
 -2.150000000000000E-002    1.515312725708717E-037
 -2.140000000000000E-002    2.777055251966066E-037
 -2.130000000000000E-002    4.229582638330676E-037
 -2.120000000000000E-002    5.665093098201381E-037
 -2.110000000000000E-002    6.750452708013038E-037
 -2.100000000000000E-002    7.027288932522507E-037
 -2.090000000000000E-002    5.941227791240910E-037
 -2.080000000000000E-002    2.910723744885901E-037
 -2.070000000000000E-002   -2.557264547220256E-037
 -2.060000000000000E-002   -1.070425110641833E-036
 -2.050000000000000E-002   -2.132005906166211E-036
 -2.040000000000000E-002   -3.353010835851397E-036
 -2.030000000000000E-002   -4.561145433203385E-036
 -2.020000000000000E-002   -5.489534782677446E-036
 -2.010000000000000E-002   -5.782631086532370E-036
 -2.000000000000000E-002   -5.025067274243539E-036
 -1.990000000000000E-002   -2.799540115205792E-036
 -1.980000000000000E-002    1.223421032895477E-036
 -1.970000000000000E-002    7.166540646856941E-036
 -1.960000000000000E-002    1.480840051795052E-035
 -1.950000000000000E-002    2.344793196795450E-035
 -1.940000000000000E-002    3.180138454293367E-035
 -1.930000000000000E-002    3.797108760435419E-035
 -1.920000000000000E-002    3.952987445146615E-035
 -1.910000000000000E-002    3.376235786558528E-035
 -1.900000000000000E-002    1.809112443795870E-035
 -1.890000000000000E-002   -9.309672365323021E-036
 -1.880000000000000E-002   -4.874974195743023E-035
 -1.870000000000000E-002   -9.819384844675575E-035
 -1.860000000000000E-002   -1.525117470579892E-034
 -1.850000000000000E-002   -2.030030640303133E-034
 -1.840000000000000E-002   -2.374308991552556E-034
 -1.830000000000000E-002   -2.408040311463997E-034
 -1.820000000000000E-002   -1.971067536470560E-034
 -1.810000000000000E-002   -9.207362308643629E-035
 -1.800000000000000E-002    8.306256931644526E-035
 -1.790000000000000E-002    3.271549507501769E-034
 -1.780000000000000E-002    6.246414253958783E-034
 -1.770000000000000E-002    9.418275250712142E-034
 -1.760000000000000E-002    1.225063469078261E-033
 -1.750000000000000E-002    1.402050180567218E-033
 -1.740000000000000E-002    1.387444422133400E-033
 -1.730000000000000E-002    1.093604933387679E-033
 -1.720000000000000E-002    4.466836107145451E-034
 -1.710000000000000E-002   -5.926906748544184E-034
 -1.700000000000000E-002   -2.006114764951042E-033
 -1.690000000000000E-002   -3.694845559595871E-033
 -1.680000000000000E-002   -5.462620903725376E-033
 -1.670000000000000E-002   -7.009487581914557E-033
 -1.660000000000000E-002   -7.942563802597320E-033
 -1.650000000000000E-002   -7.808972866513059E-033
 -1.640000000000000E-002   -6.154223450792629E-033
 -1.630000000000000E-002   -2.605933379273803E-033
 -1.620000000000000E-002    3.021939991100220E-033
 -1.610000000000000E-002    1.061496337494569E-032
 -1.600000000000000E-002    1.965091942319642E-032
 -1.590000000000000E-002    2.912159602533507E-032
 -1.580000000000000E-002    3.750965297077685E-032
 -1.570000000000000E-002    4.284705640217004E-032
 -1.560000000000000E-002    4.287756049229921E-032
 -1.550000000000000E-002    3.533620548147146E-032
 -1.540000000000000E-002    1.834335136413636E-032
 -1.530000000000000E-002   -9.110120457905350E-033
 -1.520000000000000E-002   -4.663459913746651E-032
 -1.510000000000000E-002   -9.194445852470007E-032
 -1.500000000000000E-002   -1.404886084323862E-031
 -1.490000000000000E-002   -1.853207552542650E-031
 -1.480000000000000E-002   -2.173231967521592E-031
 -1.470000000000000E-002   -2.258815862027755E-031
 -1.460000000000000E-002   -2.000697000905822E-031
 -1.450000000000000E-002   -1.303414941492900E-031
 -1.440000000000000E-002   -1.064363819568290E-032
 -1.430000000000000E-002    1.592379498416710E-031
 -1.420000000000000E-002    3.713901731972038E-031
 -1.410000000000000E-002    6.079335211765655E-031
 -1.400000000000000E-002    8.400915092190246E-031
 -1.390000000000000E-002    1.028652820966686E-030
 -1.380000000000000E-002    1.126266197477509E-030
 -1.370000000000000E-002    1.081881266090970E-030
 -1.360000000000000E-002    8.474280568151720E-031
 -1.350000000000000E-002    3.865150461818487E-031
 -1.340000000000000E-002   -3.154635240222949E-031
 -1.330000000000000E-002   -1.240857740698522E-030
 -1.320000000000000E-002   -2.330408095496991E-030
 -1.310000000000000E-002   -3.476851881881233E-030
 -1.300000000000000E-002   -4.523552847837506E-030
 -1.290000000000000E-002   -5.270203445621840E-030
 -1.280000000000000E-002   -5.487323650938387E-030
 -1.270000000000000E-002   -4.940579476655393E-030
 -1.260000000000000E-002   -3.424833767535585E-030
 -1.250000000000000E-002   -8.063445275311479E-031
 -1.240000000000000E-002    2.930297692164242E-030
 -1.230000000000000E-002    7.635849930505923E-030
 -1.220000000000000E-002    1.295797167314280E-029
 -1.210000000000000E-002    1.831937810367337E-029
 -1.200000000000000E-002    2.292203260975670E-029
 -1.190000000000000E-002    2.578634479487705E-029
 -1.180000000000000E-002    2.583234314524842E-029
 -1.170000000000000E-002    2.200597673733373E-029
 -1.160000000000000E-002    1.344797110801581E-029
 -1.150000000000000E-002   -3.047663268436798E-031
 -1.140000000000000E-002   -1.910389119161927E-029
 -1.130000000000000E-002   -4.198820384652473E-029
 -1.120000000000000E-002   -6.703183728700287E-029
 -1.110000000000000E-002   -9.128325598750953E-029
 -1.100000000000000E-002   -1.108374732032922E-028
 -1.090000000000000E-002   -1.210787194917071E-028
 -1.080000000000000E-002   -1.171181396438331E-028
 -1.070000000000000E-002   -9.442992318503685E-029
 -1.060000000000000E-002   -4.965995025894851E-029
 -1.050000000000000E-002    1.845481664549925E-029
 -1.040000000000000E-002    1.081569171746662E-028
 -1.030000000000000E-002    2.138668501370376E-028
 -1.020000000000000E-002    3.256759057350752E-028
 -1.010000000000000E-002    4.293132067697124E-028
 -1.000000000000000E-002    5.067555818302826E-028
 -9.899999999999999E-003    5.376094525056253E-028
 -9.800000000000000E-003    5.013193789981117E-028
 -9.699999999999999E-003    3.801504739241231E-028
 -9.599999999999999E-003    1.627568336698294E-028
 -9.500000000000000E-003   -1.520038493971776E-028
 -9.399999999999999E-003   -5.514986698046991E-028
 -9.299999999999999E-003   -1.006604092702154E-027
 -9.200000000000000E-003   -1.470529481916295E-027
 -9.099999999999999E-003   -1.879851638640338E-027
 -8.999999999999999E-003   -2.158316962343489E-027
 -8.900000000000000E-003   -2.223730086605758E-027
 -8.799999999999999E-003   -1.997890000384107E-027
 -8.699999999999999E-003   -1.419072234671115E-027
 -8.600000000000000E-003   -4.560274132462870E-028
 -8.499999999999999E-003    8.780723048620569E-028
 -8.399999999999999E-003    2.513766876553867E-027
 -8.300000000000000E-003    4.317856210611782E-027
 -8.199999999999999E-003    6.092744939206209E-027
 -8.100000000000000E-003    7.584683657480115E-027
 -8.000000000000000E-003    8.502337133724962E-027
 -7.899999999999999E-003    8.546050314499978E-027
 -7.800000000000000E-003    7.446770621637376E-027
 -7.699999999999999E-003    5.011928325817980E-027
 -7.599999999999999E-003    1.173866541833688E-027
 -7.499999999999999E-003   -3.965163607311146E-027
 -7.399999999999999E-003   -1.009855840968563E-026
 -7.299999999999999E-003   -1.669903957294854E-026
 -7.199999999999999E-003   -2.302756143229296E-026
 -7.100000000000000E-003   -2.817297605107766E-026
 -6.999999999999999E-003   -3.112528152902150E-026
 -6.899999999999999E-003   -3.088149797513740E-026
 -6.800000000000000E-003   -2.657864843012875E-026
 -6.699999999999999E-003   -1.764335561363496E-026
 -6.599999999999999E-003   -3.942826699950452E-027
 -6.499999999999999E-003    1.408193821618722E-026
 -6.399999999999999E-003    3.532220932650696E-026
 -6.299999999999999E-003    5.796848427520342E-026
 -6.199999999999999E-003    7.955740414202317E-026
 -6.100000000000000E-003    9.711211168071212E-026
 -5.999999999999999E-003    1.073811158931669E-025
 -5.899999999999999E-003    1.071697206975563E-025
 -5.800000000000000E-003    9.374549962990478E-026
 -5.699999999999999E-003    6.528615704992929E-026
 -5.599999999999999E-003    2.132598336446622E-026
 -5.499999999999999E-003   -3.685254202273107E-026
 -5.399999999999999E-003   -1.059408001752285E-025
 -5.299999999999999E-003   -1.804984089760937E-025
 -5.199999999999999E-003   -2.530716959982140E-025
 -5.099999999999999E-003   -3.145740526553425E-025
 -4.999999999999999E-003   -3.549445720412140E-025
 -4.899999999999999E-003   -3.640743092823466E-025
 -4.799999999999999E-003   -3.329572013325492E-025
 -4.699999999999999E-003   -2.549887592282722E-025
 -4.599999999999999E-003   -1.273026008975289E-025
 -4.499999999999999E-003    4.799417534514000E-026
 -4.399999999999999E-003    2.628459287678924E-025
 -4.299999999999999E-003    5.027014459779161E-025
 -4.199999999999999E-003    7.465555140420106E-025
 -4.099999999999999E-003    9.677144353788544E-025
 -3.999999999999999E-003    1.135375431899886E-024
 -3.899999999999999E-003    1.217044978206250E-024
 -3.799999999999999E-003    1.181736806647893E-024
 -3.699999999999999E-003    1.003793200183154E-024
 -3.599999999999999E-003    6.670664182126856E-025
 -3.499999999999999E-003    1.690935219998603E-025
 -3.399999999999999E-003   -4.751965537014447E-025
 -3.299999999999999E-003   -1.230767361098428E-024
 -3.199999999999999E-003   -2.041305459249050E-024
 -3.099999999999999E-003   -2.830118677219745E-024
 -2.999999999999999E-003   -3.503533147987555E-024
 -2.899999999999999E-003   -3.957051506868747E-024
 -2.799999999999999E-003   -4.084289320225777E-024
 -2.699999999999999E-003   -3.788401012159153E-024
 -2.599999999999999E-003   -2.995343126012094E-024
 -2.499999999999999E-003   -1.667944081078603E-024
 -2.399999999999999E-003    1.806122264589055E-025
 -2.299999999999999E-003    2.475574725942744E-024
 -2.199999999999999E-003    5.073546936299211E-024
 -2.099999999999999E-003    7.761397836007204E-024
 -1.999999999999999E-003    1.026280037992619E-023
 -1.899999999999999E-003    1.225356099415527E-023
 -1.799999999999999E-003    1.338617790581514E-023
 -1.699999999999999E-003    1.332309678013765E-023
 -1.599999999999999E-003    1.177699777810459E-023
 -1.499999999999999E-003    8.555221000374135E-024
 -1.399999999999999E-003    3.604254354004899E-024
 -1.299999999999999E-003   -2.950763495867888E-024
 -1.199999999999999E-003   -1.077720850925741E-023
 -1.099999999999999E-003   -1.932258333343166E-023
 -9.999999999999989E-004   -2.782381202044783E-023
 -8.999999999999990E-004   -3.534218883713920E-023
 -7.999999999999990E-004   -4.082593201352906E-023
 -6.999999999999989E-004   -4.319960063183790E-023
 -5.999999999999990E-004   -4.147647774350072E-023
 -4.999999999999989E-004   -3.488656601026450E-023
 -3.999999999999989E-004   -2.300951444507192E-023
 -2.999999999999989E-004   -5.899012442290863E-024
 -1.999999999999989E-004    1.581682144572363E-023
 -9.999999999999892E-005    4.087508612977453E-023
  1.084202172485504E-018    6.737279841861093E-023
  1.000000000000011E-004    9.282890428042232E-023
  2.000000000000011E-004    1.143210671226651E-022
  3.000000000000011E-004    1.286983446161246E-022
  4.000000000000011E-004    1.328630127959863E-022
  5.000000000000011E-004    1.241063297410223E-022
  6.000000000000011E-004    1.004742568653735E-022
  7.000000000000011E-004    6.113147029613111E-023
  8.000000000000011E-004    6.685827475799183E-024
  9.000000000000012E-004   -6.056785724166703E-023
  1.000000000000001E-003   -1.365258879813286E-022
  1.100000000000001E-003   -2.153124164503834E-022
  1.200000000000001E-003   -2.895032547970315E-022
  1.300000000000001E-003   -3.505520126507397E-022
  1.400000000000001E-003   -3.894167959136975E-022
  1.500000000000001E-003   -3.973659464235563E-022
  1.600000000000001E-003   -3.669189925994130E-022
  1.700000000000001E-003   -2.928578080689738E-022
  1.800000000000001E-003   -1.732222824663758E-022
  1.900000000000001E-003   -1.018986685955094E-023
  2.000000000000001E-003    1.892712881536277E-022
  2.100000000000001E-003    4.130861603662701E-022
  2.200000000000001E-003    6.441942772264195E-022
  2.300000000000001E-003    8.611877128012201E-022
  2.400000000000001E-003    1.039510672031183E-021
  2.500000000000001E-003    1.153220750137829E-021
  2.600000000000001E-003    1.177256768839219E-021
  2.700000000000001E-003    1.090097203528632E-021
  2.800000000000001E-003    8.766301621526135E-022
  2.900000000000001E-003    5.309970219708238E-022
  3.000000000000001E-003    5.912378618394640E-023
  3.100000000000001E-003   -5.193760128571294E-022
  3.200000000000001E-003   -1.170248592195548E-021
  3.300000000000001E-003   -1.844891904971609E-021
  3.400000000000001E-003   -2.482127890309253E-021
  3.500000000000001E-003   -3.011590355862521E-021
  3.600000000000001E-003   -3.358732290981085E-021
  3.700000000000001E-003   -3.451294608557869E-021
  3.800000000000001E-003   -3.226896897150745E-021
  3.900000000000001E-003   -2.641229487592889E-021
  4.000000000000001E-003   -1.676153906114997E-021
  4.100000000000001E-003   -3.468872539007996E-022
  4.200000000000001E-003    1.292633593761800E-021
  4.300000000000001E-003    3.147113273421505E-021
  4.400000000000001E-003    5.080800732753568E-021
  4.500000000000001E-003    6.922556943440543E-021
  4.600000000000002E-003    8.475421539274584E-021
  4.700000000000001E-003    9.530629335991722E-021
  4.800000000000001E-003    9.885570636683720E-021
  4.900000000000002E-003    9.364704428375020E-021
  5.000000000000001E-003    7.841944346157223E-021
  5.100000000000001E-003    5.262613610828869E-021
  5.200000000000001E-003    1.662736479487380E-021
  5.300000000000002E-003   -2.816716457739601E-021
  5.400000000000001E-003   -7.922971321633991E-021
  5.500000000000001E-003   -1.329404456848507E-020
  5.600000000000002E-003   -1.847230741583523E-020
  5.700000000000001E-003   -2.292976472645257E-020
  5.800000000000001E-003   -2.610481153043278E-020
  5.900000000000002E-003   -2.744907031150367E-020
  6.000000000000001E-003   -2.648172817215769E-020
  6.100000000000001E-003   -2.284759275401529E-020
  6.200000000000002E-003   -1.637407432663739E-020
  6.300000000000002E-003   -7.121552699151109E-021
  6.400000000000001E-003    4.578793843550068E-021
  6.500000000000001E-003    1.810548902491054E-020
  6.600000000000002E-003    3.255068254906503E-020
  6.700000000000001E-003    4.675137502534376E-020
  6.800000000000001E-003    5.934992799950126E-020
  6.900000000000002E-003    6.888354175388158E-020
  7.000000000000001E-003    7.389965355672300E-020
  7.100000000000001E-003    7.309131780238510E-020
  7.200000000000002E-003    6.544373633926240E-020
  7.300000000000002E-003    5.038056622300589E-020
  7.400000000000001E-003    2.789660024753003E-020
  7.500000000000001E-003   -1.337651404721246E-021
  7.600000000000002E-003   -3.591407419282608E-020
  7.700000000000001E-003   -7.368092341766942E-020
  7.800000000000001E-003   -1.118032731981550E-019
  7.900000000000001E-003   -1.468962854253430E-019
  8.000000000000002E-003   -1.752322562807700E-019
  8.100000000000001E-003   -1.930158735839300E-019
  8.200000000000001E-003   -1.967149595699061E-019
  8.300000000000002E-003   -1.834266838184623E-019
  8.400000000000001E-003   -1.512524170668028E-019
  8.500000000000002E-003   -9.964893456968939E-020
  8.600000000000002E-003   -2.971995887032904E-020
  8.700000000000001E-003    5.558885493781502E-020
  8.800000000000002E-003    1.514261403735607E-019
  8.900000000000002E-003    2.511313474469532E-019
  9.000000000000001E-003    3.465108962433540E-019
  9.100000000000002E-003    4.283007127287347E-019
  9.200000000000002E-003    4.868061805652872E-019
  9.300000000000001E-003    5.126925441505113E-019
  9.400000000000002E-003    4.978810487781229E-019
  9.500000000000001E-003    4.364883538923428E-019
  9.600000000000001E-003    3.257324067413588E-019
  9.700000000000002E-003    1.667176519896680E-019
  9.800000000000001E-003   -3.499127384309987E-020
  9.900000000000001E-003   -2.690947973721904E-019
  1.000000000000000E-002   -5.206577544997530E-019
  1.010000000000000E-002   -7.706369784188575E-019
  1.020000000000000E-002   -9.968619696102225E-019
  1.030000000000000E-002   -1.175457167693240E-018
  1.040000000000000E-002   -1.282653151404199E-018
  1.050000000000000E-002   -1.296890636784778E-018
  1.060000000000000E-002   -1.201079764657821E-018
  1.070000000000000E-002   -9.848409232891996E-019
  1.080000000000000E-002   -6.465273661516387E-019
  1.090000000000000E-002   -1.948162608490541E-019
  1.100000000000000E-002    3.503401405181541E-019
  1.110000000000000E-002    9.575901325311588E-019
  1.120000000000000E-002    1.585027547137125E-018
  1.130000000000000E-002    2.182088939363141E-018
  1.140000000000000E-002    2.692504340729672E-018
  1.150000000000000E-002    3.058215133309362E-018
  1.160000000000000E-002    3.224073196365089E-018
  1.170000000000000E-002    3.143040222431236E-018
  1.180000000000000E-002    2.781519110608773E-018
  1.190000000000000E-002    2.124380211218644E-018
  1.200000000000000E-002    1.179206207548393E-018
  1.210000000000000E-002   -2.073065409181378E-020
  1.220000000000000E-002   -1.415209272568960E-018
  1.230000000000000E-002   -2.917892837717621E-018
  1.240000000000000E-002   -4.419508099608886E-018
  1.250000000000000E-002   -5.793465189570365E-018
  1.260000000000000E-002   -6.903817471479857E-018
  1.270000000000000E-002   -7.615250964921156E-018
  1.280000000000000E-002   -7.804570351348574E-018
  1.290000000000000E-002   -7.372945490770400E-018
  1.300000000000000E-002   -6.258000158434672E-018
  1.310000000000000E-002   -4.444705143740574E-018
  1.320000000000000E-002   -1.973975497168666E-018
  1.330000000000000E-002    1.052096520049722E-018
  1.340000000000000E-002    4.469325363145526E-018
  1.350000000000000E-002    8.055562159482905E-018
  1.360000000000000E-002    1.154028944378274E-017
  1.370000000000000E-002    1.461970215136388E-017
  1.380000000000000E-002    1.697684262459352E-017
  1.390000000000000E-002    1.830586620050653E-017
  1.400000000000000E-002    1.833903992589449E-017
  1.410000000000000E-002    1.687462989104882E-017
  1.420000000000000E-002    1.380349712148610E-017
  1.430000000000000E-002    9.132002106239185E-018
  1.440000000000000E-002    2.998776238587982E-018
  1.450000000000000E-002   -4.316929294750706E-018
  1.460000000000000E-002   -1.239724104630177E-017
  1.470000000000000E-002   -2.069935295946879E-017
  1.480000000000000E-002   -2.858147903657530E-017
  1.490000000000000E-002   -3.534071137948874E-017
  1.500000000000000E-002   -4.026139480259886E-017
  1.510000000000000E-002   -4.267154883559408E-017
  1.520000000000000E-002   -4.200388657114767E-017
  1.530000000000000E-002   -3.785708870305969E-017
  1.540000000000000E-002   -3.005236210861453E-017
  1.550000000000000E-002   -1.868001880502454E-017
  1.560000000000000E-002   -4.130876719336498E-018
  1.570000000000000E-002    1.289221013252591E-017
  1.580000000000000E-002    3.138638395842485E-017
  1.590000000000000E-002    5.008673258853769E-017
  1.600000000000000E-002    6.753063681564596E-017
  1.610000000000000E-002    8.214703870422587E-017
  1.620000000000000E-002    9.236685096677996E-017
  1.630000000000000E-002    9.674856602724406E-017
  1.640000000000000E-002    9.411106565264029E-017
  1.650000000000000E-002    8.366400131319456E-017
  1.660000000000000E-002    6.512497584315030E-017
  1.670000000000000E-002    3.881241609158034E-017
  1.680000000000000E-002    5.703414652548634E-018
  1.690000000000000E-002   -3.255273863333905E-017
  1.700000000000000E-002   -7.367242056902557E-017
  1.710000000000000E-002   -1.148308162547919E-016
  1.720000000000000E-002   -1.528103123626048E-016
  1.730000000000000E-002   -1.841999259241054E-016
  1.740000000000000E-002   -2.056366704661745E-016
  1.750000000000000E-002   -2.140755695230141E-016
  1.760000000000000E-002   -2.070707752949772E-016
  1.770000000000000E-002   -1.830472780322097E-016
  1.780000000000000E-002   -1.415405746093356E-016
  1.790000000000000E-002   -8.338142448108577E-017
  1.800000000000000E-002   -1.080406235880844E-017
  1.810000000000000E-002    7.254063892065534E-017
  1.820000000000000E-002    1.616803967120950E-016
  1.830000000000000E-002    2.505316997569685E-016
  1.840000000000000E-002    3.322236693410210E-016
  1.850000000000000E-002    3.995248816379556E-016
  1.860000000000000E-002    4.453535543611742E-016
  1.870000000000000E-002    4.633421123864059E-016