 -4.000000000000000E-002    0.000000000000000E+000
 -3.990000000000000E-002    0.000000000000000E+000
 -3.980000000000000E-002    0.000000000000000E+000
 -3.970000000000000E-002    0.000000000000000E+000
 -3.960000000000000E-002    0.000000000000000E+000
 -3.950000000000000E-002    0.000000000000000E+000
 -3.940000000000000E-002    0.000000000000000E+000
 -3.930000000000000E-002   -9.130748537013008E-028
 -3.920000000000000E-002   -1.212114710043361E-026
 -3.910000000000000E-002   -8.375617832060842E-026
 -3.900000000000000E-002   -3.981824396619598E-025
 -3.890000000000000E-002   -1.449683654592246E-024
 -3.880000000000000E-002   -4.249077259612057E-024
 -3.870000000000000E-002   -1.020600002232621E-023
 -3.860000000000000E-002   -1.976360266006755E-023
 -3.850000000000000E-002   -2.800168956125820E-023
 -3.840000000000000E-002   -1.461009069411357E-023
 -3.830000000000000E-002    7.425553141025300E-023
 -3.820000000000000E-002    3.520687421269333E-022
 -3.810000000000000E-002    1.018318808627518E-021
 -3.800000000000000E-002    2.362740568658007E-021
 -3.790000000000000E-002    4.701574859148113E-021
 -3.780000000000000E-002    8.169933258424168E-021
 -3.770000000000000E-002    1.226529846717721E-020
 -3.760000000000000E-002    1.502530494119242E-020
 -3.750000000000000E-002    1.175446287937327E-020
 -3.740000000000000E-002   -6.676322295876677E-021
 -3.730000000000000E-002   -5.570986355570342E-020
 -3.720000000000000E-002   -1.585501840040845E-019
 -3.710000000000000E-002   -3.460610677426903E-019
 -3.700000000000000E-002   -6.534103838226196E-019
 -3.690000000000000E-002   -1.111207221611101E-018
 -3.680000000000000E-002   -1.728595824695646E-018
 -3.670000000000000E-002   -2.466056813170121E-018
 -3.660000000000000E-002   -3.196894032728774E-018
 -3.650000000000000E-002   -3.658917752869603E-018
 -3.640000000000000E-002   -3.401935166643547E-018
 -3.630000000000000E-002   -1.742294042071496E-018
 -3.620000000000000E-002    2.257457615310778E-018
 -3.610000000000000E-002    9.758786151587336E-018
 -3.600000000000000E-002    2.203670881952969E-017
 -3.590000000000000E-002    4.025634556888792E-017
 -3.580000000000000E-002    6.510867288718375E-017
 -3.570000000000000E-002    9.629156808205585E-017
 -3.560000000000000E-002    1.318473116281017E-016
 -3.550000000000000E-002    1.674053954802491E-016
 -3.540000000000000E-002    1.954283378696981E-016
 -3.530000000000000E-002    2.046143689968674E-016
 -3.520000000000000E-002    1.796664378011288E-016
 -3.510000000000000E-002    1.016815462840077E-016
 -3.500000000000000E-002   -5.056667144890941E-017
 -3.490000000000000E-002   -2.982016899992455E-016
 -3.480000000000000E-002   -6.585016249928421E-016
 -3.470000000000000E-002   -1.139813834461147E-015
 -3.460000000000000E-002   -1.735316501009133E-015
 -3.450000000000000E-002   -2.416098157660033E-015
 -3.440000000000000E-002   -3.124350020404308E-015
 -3.430000000000000E-002   -3.767797610261146E-015
 -3.420000000000000E-002   -4.216786161223177E-015
 -3.410000000000000E-002   -4.305612101244709E-015
 -3.400000000000000E-002   -3.839699952284594E-015
 -3.390000000000000E-002   -2.609987319586333E-015
 -3.380000000000000E-002   -4.153534623907618E-016
 -3.370000000000000E-002    2.906910494810670E-015
 -3.360000000000000E-002    7.443718580280357E-015
 -3.350000000000000E-002    1.316438434192460E-014
 -3.340000000000000E-002    1.987834410774466E-014
 -3.330000000000000E-002    2.719773906505023E-014
 -3.320000000000000E-002    3.451131187331353E-014
 -3.310000000000000E-002    4.097662774276643E-014
 -3.300000000000000E-002    4.553751474535605E-014
 -3.290000000000000E-002    4.697247672002053E-014
 -3.280000000000000E-002    4.397772052696506E-014
 -3.270000000000000E-002    3.528526291215660E-014
 -3.260000000000000E-002    1.981248719940438E-014
 -3.250000000000000E-002   -3.165112479698248E-015
 -3.240000000000000E-002   -3.383115238852471E-014
 -3.230000000000000E-002   -7.165307801555266E-014
 -3.220000000000000E-002   -1.152353681380230E-013
 -3.210000000000000E-002   -1.622238599557791E-013
 -3.200000000000000E-002   -2.092834698184539E-013
 -3.190000000000000E-002   -2.521682738620913E-013
 -3.180000000000000E-002   -2.858972740116540E-013
 -3.170000000000000E-002   -3.050404566447985E-013
 -3.160000000000000E-002   -3.041094121511482E-013
 -3.150000000000000E-002   -2.780349144078001E-013
 -3.140000000000000E-002   -2.227019583294442E-013
 -3.130000000000000E-002   -1.355021227629250E-013
 -3.120000000000000E-002   -1.585505411705551E-014
 -3.110000000000000E-002    1.343533344232853E-013
 -3.100000000000000E-002    3.104679404130971E-013
 -3.090000000000000E-002    5.049427248725473E-013
 -3.080000000000000E-002    7.074350685679757E-013
 -3.070000000000000E-002    9.051354338468712E-013
 -3.060000000000000E-002    1.083332190601705E-012
 -3.050000000000000E-002    1.226191245001219E-012
 -3.040000000000000E-002    1.317709967842884E-012
 -3.030000000000000E-002    1.342787225270793E-012
 -3.020000000000000E-002    1.288339426910017E-012
 -3.010000000000000E-002    1.144385580255434E-012
 -3.000000000000000E-002    9.050254854802279E-013
 -2.990000000000000E-002    5.692427298621085E-013
 -2.980000000000000E-002    1.414772592419631E-013
 -2.970000000000000E-002   -3.680694961531153E-013
 -2.960000000000000E-002   -9.434150791991969E-013
 -2.950000000000000E-002   -1.563061850824858E-012
 -2.940000000000000E-002   -2.200533890876987E-012
 -2.930000000000000E-002   -2.825159811631749E-012
 -2.920000000000000E-002   -3.403074793744467E-012
 -2.910000000000000E-002   -3.898416445914018E-012
 -2.900000000000000E-002   -4.274695343054811E-012
 -2.890000000000000E-002   -4.496328449897469E-012
 -2.880000000000000E-002   -4.530327374166908E-012
 -2.870000000000000E-002   -4.348130261574413E-012
 -2.860000000000000E-002   -3.927553395122755E-012
 -2.850000000000000E-002   -3.254813370887608E-012
 -2.840000000000000E-002   -2.326536235672891E-012
 -2.830000000000000E-002   -1.151623886984857E-012
 -2.820000000000000E-002    2.471961182746183E-013
 -2.810000000000000E-002    1.832349810084594E-012
 -2.800000000000000E-002    3.551162242996466E-012
 -2.790000000000000E-002    5.336597342466275E-012
 -2.780000000000000E-002    7.109184556840291E-012
 -2.770000000000000E-002    8.780241104193647E-012
 -2.760000000000000E-002    1.025637802748643E-011
 -2.750000000000000E-002    1.144512625790654E-011
 -2.740000000000000E-002    1.226133923161598E-011
 -2.730000000000000E-002    1.263386093872028E-011
 -2.720000000000000E-002    1.251180345346257E-011
 -2.710000000000000E-002    1.186967656808509E-011
 -2.700000000000000E-002    1.071061872741627E-011
 -2.690000000000000E-002    9.067054129651510E-012
 -2.680000000000000E-002    6.998316717240418E-012
 -2.670000000000000E-002    4.585091883765844E-012
 -2.660000000000000E-002    1.920923938389839E-012
 -2.650000000000000E-002   -8.985044528148313E-013
 -2.640000000000000E-002   -3.787170180102199E-012
 -2.630000000000000E-002   -6.680057450436864E-012
 -2.620000000000000E-002   -9.542275650207603E-012
 -2.610000000000000E-002   -1.237413083551058E-011
 -2.600000000000000E-002   -1.521053525101575E-011
 -2.590000000000000E-002   -1.811361781312092E-011
 -2.580000000000000E-002   -2.115814228403659E-011
 -2.570000000000000E-002   -2.441027963652317E-011
 -2.560000000000000E-002   -2.790138644614000E-011
 -2.550000000000000E-002   -3.159949996607927E-011
 -2.540000000000000E-002   -3.538222026248865E-011
 -2.530000000000000E-002   -3.901528561098196E-011
 -2.520000000000000E-002   -4.214133815807067E-011
 -2.510000000000000E-002   -4.428301524509211E-011
 -2.500000000000000E-002   -4.486350664051376E-011
 -2.490000000000000E-002   -4.324614749408207E-011
 -2.480000000000000E-002   -3.879244950613182E-011
 -2.470000000000000E-002   -3.093557047940882E-011
 -2.460000000000000E-002   -1.926364824001659E-011
 -2.450000000000000E-002   -3.605111850577910E-012
 -2.440000000000000E-002    1.589368331339367E-011
 -2.430000000000000E-002    3.870905153038634E-011
 -2.420000000000000E-002    6.390910892177801E-011
 -2.410000000000000E-002    9.016024415462911E-011
 -2.400000000000000E-002    1.157768293202787E-010
 -2.390000000000000E-002    1.388161966357408E-010
 -2.380000000000000E-002    1.572158539667622E-010
 -2.370000000000000E-002    1.689647884040186E-010
 -2.360000000000000E-002    1.722955571165720E-010
 -2.350000000000000E-002    1.658795568850525E-010
 -2.340000000000000E-002    1.490050790213996E-010
 -2.330000000000000E-002    1.217168778904474E-010
 -2.320000000000000E-002    8.489751687015822E-011
 -2.310000000000000E-002    4.027472370430095E-011
 -2.300000000000000E-002   -9.654606613926932E-012
 -2.290000000000000E-002   -6.178505498573767E-011
 -2.280000000000000E-002   -1.126397386541694E-010
 -2.270000000000000E-002   -1.586662472792698E-010
 -2.260000000000000E-002   -1.965653259822848E-010
 -2.250000000000000E-002   -2.236195757454150E-010
 -2.240000000000000E-002   -2.379863994689776E-010
 -2.230000000000000E-002   -2.389195420127742E-010
 -2.220000000000000E-002   -2.268884932862425E-010
 -2.210000000000000E-002   -2.035737231304636E-010
 -2.200000000000000E-002   -1.717279160547679E-010
 -2.190000000000000E-002   -1.349080676153674E-010
 -2.180000000000000E-002   -9.709891767070432E-011
 -2.170000000000000E-002   -6.226266786578518E-011
 -2.160000000000000E-002   -3.386202487108729E-011
 -2.150000000000000E-002   -1.441097463171007E-011
 -2.140000000000000E-002   -5.109358444810046E-012
 -2.130000000000000E-002   -5.612637597325158E-012
 -2.120000000000000E-002   -1.397646439679786E-011
 -2.110000000000000E-002   -2.679863101644769E-011
 -2.100000000000000E-002   -3.955898316841088E-011
 -2.090000000000000E-002   -4.713425407104499E-011
 -2.080000000000000E-002   -4.444117163251877E-011
 -2.070000000000000E-002   -2.714149816797739E-011
 -2.060000000000000E-002    7.671608541961035E-012
 -2.050000000000000E-002    6.089175037993239E-011
 -2.040000000000000E-002    1.310038109008507E-010
 -2.030000000000000E-002    2.139422635471510E-010
 -2.020000000000000E-002    3.032468930490209E-010
 -2.010000000000000E-002    3.905281517326623E-010
 -2.000000000000000E-002    4.662193663382732E-010
 -1.990000000000000E-002    5.205558854933998E-010
 -1.980000000000000E-002    5.446897205696288E-010
 -1.970000000000000E-002    5.318233000245880E-010
 -1.960000000000000E-002    4.782317962411350E-010
 -1.950000000000000E-002    3.840459309447959E-010
 -1.940000000000000E-002    2.536810606735770E-010
 -1.930000000000000E-002    9.582981940698767E-011
 -1.920000000000000E-002   -7.702258357321629E-011
 -1.910000000000000E-002   -2.495508601561790E-010
 -1.900000000000000E-002   -4.049459952601579E-010
 -1.890000000000000E-002   -5.265620087933176E-010
 -1.880000000000000E-002   -5.996960857941985E-010
 -1.870000000000000E-002   -6.133192451253571E-010
 -1.860000000000000E-002   -5.615649409759938E-010
 -1.850000000000000E-002   -4.447947014420739E-010
 -1.840000000000000E-002   -2.700939739962525E-010
 -1.830000000000000E-002   -5.110258311383898E-011
 -1.820000000000000E-002    1.928498840766811E-010
 -1.810000000000000E-002    4.382589768311411E-010
 -1.800000000000000E-002    6.594933744675647E-010
 -1.790000000000000E-002    8.311917072450829E-010
 -1.780000000000000E-002    9.307769892368044E-010
 -1.770000000000000E-002    9.408306453506200E-010
 -1.760000000000000E-002    8.510666299049264E-010
 -1.750000000000000E-002    6.596797400288961E-010
 -1.740000000000000E-002    3.738938675784874E-010
 -1.730000000000000E-002    9.616784606139081E-012
 -1.720000000000000E-002   -4.097999324787894E-010
 -1.710000000000000E-002   -8.556002572627716E-010
 -1.700000000000000E-002   -1.296274217289956E-009
 -1.690000000000000E-002   -1.700556538347501E-009
 -1.680000000000000E-002   -2.040459259777486E-009
 -1.670000000000000E-002   -2.294008526195096E-009
 -1.660000000000000E-002   -2.447372608433960E-009
 -1.650000000000000E-002   -2.496124174224706E-009
 -1.640000000000000E-002   -2.445466188526952E-009
 -1.630000000000000E-002   -2.309357317351581E-009
 -1.620000000000000E-002   -2.108600342651320E-009
 -1.610000000000000E-002   -1.868073129468971E-009
 -1.600000000000000E-002   -1.613391469937242E-009
 -1.590000000000000E-002   -1.367374901054144E-009
 -1.580000000000000E-002   -1.146725058729547E-009
 -1.570000000000000E-002   -9.593296550058346E-010
 -1.560000000000000E-002   -8.025559902816488E-010
 -1.550000000000000E-002   -6.628061982465611E-010
 -1.540000000000000E-002   -5.164820419486780E-010
 -1.530000000000000E-002   -3.323568330717202E-010
 -1.520000000000000E-002   -7.519205592201279E-011
 -1.510000000000000E-002    2.897117143390773E-010
 -1.500000000000000E-002    7.914646036400759E-010
 -1.490000000000000E-002    1.448560212462291E-009
 -1.480000000000000E-002    2.264424701399083E-009
 -1.470000000000000E-002    3.224070122961951E-009
 -1.460000000000000E-002    4.292304526037197E-009
 -1.450000000000000E-002    5.413809068902573E-009
 -1.440000000000000E-002    6.515228423217511E-009
 -1.430000000000000E-002    7.509215458636331E-009
 -1.420000000000000E-002    8.300175965188823E-009
 -1.410000000000000E-002    8.791272548544840E-009
 -1.400000000000000E-002    8.892103421200554E-009
 -1.390000000000000E-002    8.526382384885557E-009
 -1.380000000000000E-002    7.638922257670891E-009
 -1.370000000000000E-002    6.201266772753307E-009
 -1.360000000000000E-002    4.215458739430835E-009
 -1.350000000000000E-002    1.715585470283678E-009
 -1.340000000000000E-002   -1.233003184275067E-009
 -1.330000000000000E-002   -4.536663965777786E-009
 -1.320000000000000E-002   -8.078229050837870E-009
 -1.310000000000000E-002   -1.172295977880190E-008
 -1.300000000000000E-002   -1.532488581078521E-008
 -1.290000000000000E-002   -1.873265839993928E-008
 -1.280000000000000E-002   -2.179401355424625E-008
 -1.270000000000000E-002   -2.435803320783307E-008
 -1.260000000000000E-002   -2.627457541428432E-008
 -1.250000000000000E-002   -2.739046684311070E-008
 -1.240000000000000E-002   -2.754241117484719E-008
 -1.230000000000000E-002   -2.654684054847956E-008
 -1.220000000000000E-002   -2.418737353644812E-008
 -1.210000000000000E-002   -2.020067267243645E-008
 -1.200000000000000E-002   -1.426196072211786E-008
 -1.190000000000000E-002   -5.971331460256841E-009
 -1.180000000000000E-002    5.157750865173710E-009
 -1.170000000000000E-002    1.970667457946686E-008
 -1.160000000000000E-002    3.835555060453139E-008
 -1.150000000000000E-002    6.188224865373080E-008
 -1.140000000000000E-002    9.115617816740563E-008
 -1.130000000000000E-002    1.271271489968317E-007
 -1.120000000000000E-002    1.708099673113673E-007
 -1.110000000000000E-002    2.232657151615738E-007
 -1.100000000000000E-002    2.855812294388513E-007
 -1.090000000000000E-002    3.588484384167036E-007
 -1.080000000000000E-002    4.441450876211639E-007
 -1.070000000000000E-002    5.425184055557427E-007
 -1.060000000000000E-002    6.549735708587768E-007
 -1.050000000000000E-002    7.824671680882833E-007
 -1.040000000000000E-002    9.259073322097973E-007
 -1.030000000000000E-002    1.086159424210934E-006
 -1.020000000000000E-002    1.264057308015782E-006
 -1.010000000000000E-002    1.460419605039944E-006
 -1.000000000000000E-002    1.676068972963994E-006
 -9.899999999999999E-003    1.911852030910887E-006
 -9.800000000000000E-003    2.168660279145117E-006
 -9.699999999999999E-003    2.447447220525865E-006
 -9.599999999999999E-003    2.749243289398021E-006
 -9.500000000000000E-003    3.075164586559241E-006
 -9.399999999999999E-003    3.426417720265224E-006
 -9.299999999999999E-003    3.804297328900372E-006
 -9.200000000000000E-003    4.210180782184219E-006
 -9.099999999999999E-003    4.645517296022037E-006
 -8.999999999999999E-003    5.111816441022449E-006
 -8.900000000000000E-003    5.610635610453850E-006
 -8.799999999999999E-003    6.143569952795535E-006
 -8.699999999999999E-003    6.712246875096497E-006
 -8.600000000000000E-003    7.318323898271283E-006
 -8.499999999999999E-003    7.963495757403006E-006
 -8.399999999999999E-003    8.649505260874136E-006
 -8.300000000000000E-003    9.378164351211985E-006
 -8.199999999999999E-003    1.015137917812658E-005
 -8.100000000000000E-003    1.097118030620584E-005
 -8.000000000000000E-003    1.183975097799979E-005
 -7.899999999999999E-003    1.275946173010184E-005
 -7.800000000000000E-003    1.373289675973271E-005
 -7.699999999999999E-003    1.476287499552396E-005
 -7.599999999999999E-003    1.585246824186230E-005
 -7.499999999999999E-003    1.700500723379778E-005
 -7.399999999999999E-003    1.822408042163687E-005
 -7.299999999999999E-003    1.951352567899905E-005
 -7.199999999999999E-003    2.087741558832149E-005
 -7.100000000000000E-003    2.232003246675803E-005
 -6.999999999999999E-003    2.384585215237657E-005
 -6.899999999999999E-003    2.545952493654490E-005
 -6.800000000000000E-003    2.716585575728140E-005
 -6.699999999999999E-003    2.896980200979776E-005
 -6.599999999999999E-003    3.087646789236883E-005
 -6.499999999999999E-003    3.289112784395668E-005
 -6.399999999999999E-003    3.501924504806598E-005
 -6.299999999999999E-003    3.726650724121558E-005
 -6.199999999999999E-003    3.963887326803413E-005
 -6.100000000000000E-003    4.214261982217630E-005
 -5.999999999999999E-003    4.478439245878586E-005
 -5.899999999999999E-003    4.757126531518200E-005
 -5.800000000000000E-003    5.051077108516220E-005
 -5.699999999999999E-003    5.361095687800273E-005
 -5.599999999999999E-003    5.688040952492529E-005
 -5.499999999999999E-003    6.032826111897169E-005
 -5.399999999999999E-003    6.396421121072987E-005
 -5.299999999999999E-003    6.779851574080280E-005
 -5.199999999999999E-003    7.184197242354962E-005
 -5.099999999999999E-003    7.610591222207756E-005
 -4.999999999999999E-003    8.060217133965732E-005
 -4.899999999999999E-003    8.534308881281604E-005
 -4.799999999999999E-003    9.034147981967566E-005
 -4.699999999999999E-003    9.561067062884717E-005
 -4.599999999999999E-003    1.011644776963458E-004
 -4.499999999999999E-003    1.070172626386794E-004
 -4.399999999999999E-003    1.131839598619522E-004
 -4.299999999999999E-003    1.196801270176302E-004
 -4.199999999999999E-003    1.265219925243218E-004
 -4.099999999999999E-003    1.337265689360759E-004
 -3.999999999999999E-003    1.413116551916708E-004
 -3.899999999999999E-003    1.492959369736303E-004
 -3.799999999999999E-003    1.576990136356552E-004
 -3.699999999999999E-003    1.665414535469739E-004
 -3.599999999999999E-003    1.758448398493406E-004
 -3.499999999999999E-003    1.856317488670511E-004
 -3.399999999999999E-003    1.959257810647237E-004
 -3.299999999999999E-003    2.067515683156412E-004
 -3.199999999999999E-003    2.181347435948647E-004
 -3.099999999999999E-003    2.301019761435443E-004
 -2.999999999999999E-003    2.426809099101512E-004
 -2.899999999999999E-003    2.559002366611366E-004
 -2.799999999999999E-003    2.697896633328625E-004
 -2.699999999999999E-003    2.843799891791712E-004
 -2.599999999999999E-003    2.997031266300081E-004
 -2.499999999999999E-003    3.157922283467420E-004
 -2.399999999999999E-003    3.326816936269343E-004
 -2.299999999999999E-003    3.504073061937711E-004
 -2.199999999999999E-003    3.690062970942366E-004
 -2.099999999999999E-003    3.885174764561884E-004
 -1.999999999999999E-003    4.089812991118424E-004
 -1.899999999999999E-003    4.304399320518471E-004
 -1.799999999999999E-003    4.529373177131856E-004
 -1.699999999999999E-003    4.765192363743429E-004
 -1.599999999999999E-003    5.012333234903525E-004
 -1.499999999999999E-003    5.271291267327361E-004
 -1.399999999999999E-003    5.542579900187862E-004
 -1.299999999999999E-003    5.826731460816060E-004
 -1.199999999999999E-003    6.124296601315033E-004
 -1.099999999999999E-003    6.435844968111102E-004
 -9.999999999999989E-004    6.761965486218866E-004
 -8.999999999999990E-004    7.103264396295546E-004
 -7.999999999999990E-004    7.460368829727617E-004
 -6.999999999999989E-004    7.833925888228825E-004
 -5.999999999999990E-004    8.224602854602032E-004
 -4.999999999999989E-004    8.633089668654491E-004
 -3.999999999999989E-004    9.060099520637255E-004
 -2.999999999999989E-004    9.506369367385631E-004
 -1.999999999999989E-004    9.972662369198361E-004
 -9.999999999999892E-005    1.045976825017898E-003
  1.084202172485504E-018    1.096850277774096E-003
  1.000000000000011E-004    1.149971279243015E-003
  2.000000000000011E-004    1.205427074321346E-003
  3.000000000000011E-004    1.263308126079035E-003
  4.000000000000011E-004    1.323707624955699E-003
  5.000000000000011E-004    1.386721751115628E-003
  6.000000000000011E-004    1.452449529786912E-003
  7.000000000000011E-004    1.520992895940071E-003
  8.000000000000011E-004    1.592456658663209E-003
  9.000000000000012E-004    1.666948412862342E-003
  1.000000000000001E-003    1.744578566197678E-003
  1.100000000000001E-003    1.825460526947358E-003
  1.200000000000001E-003    1.909710455317019E-003
  1.300000000000001E-003    1.997447728328901E-003
  1.400000000000001E-003    2.088794830437051E-003
  1.500000000000001E-003    2.183877485142573E-003
  1.600000000000001E-003    2.282824785809288E-003
  1.700000000000001E-003    2.385769439641425E-003
  1.800000000000001E-003    2.492847581489993E-003
  1.900000000000001E-003    2.604199603516007E-003
  2.000000000000001E-003    2.719969464101665E-003
  2.100000000000001E-003    2.840305186256429E-003
  2.200000000000001E-003    2.965358776375316E-003
  2.300000000000001E-003    3.095286239612083E-003
  2.400000000000001E-003    3.230247536216833E-003
  2.500000000000001E-003    3.370406494551362E-003
  2.600000000000001E-003    3.515930901970893E-003
  2.700000000000001E-003    3.666992032318716E-003
  2.800000000000001E-003    3.823765038812236E-003
  2.900000000000001E-003    3.986427983363666E-003
  3.000000000000001E-003    4.155163000831835E-003
  3.100000000000001E-003    4.330155733875652E-003
  3.200000000000001E-003    4.511594191335530E-003
  3.300000000000001E-003    4.699670976050518E-003
  3.400000000000001E-003    4.894581395387289E-003
  3.500000000000001E-003    5.096524050874122E-003
  3.600000000000001E-003    5.305701463611472E-003
  3.700000000000001E-003    5.522318919620782E-003
  3.800000000000001E-003    5.746585839908528E-003
  3.900000000000001E-003    5.978715013717961E-003
  4.000000000000001E-003    6.218922956650510E-003
  4.100000000000001E-003    6.467429605785192E-003
  4.200000000000001E-003    6.724458709639882E-003
  4.300000000000001E-003    6.990236803723741E-003
  4.400000000000001E-003    7.264994459705308E-003
  4.500000000000001E-003    7.548964855987661E-003
  4.600000000000002E-003    7.842383580774345E-003
  4.700000000000001E-003    8.145490237990058E-003
  4.800000000000001E-003    8.458527033493847E-003
  4.900000000000002E-003    8.781736624117553E-003
  5.000000000000001E-003    9.115364576197108E-003
  5.100000000000001E-003    9.459659323906291E-003
  5.200000000000001E-003    9.814870333285855E-003
  5.300000000000002E-003    1.018124782994702E-002
  5.400000000000001E-003    1.055904494064016E-002
  5.500000000000001E-003    1.094851394605888E-002
  5.600000000000002E-003    1.134990946484028E-002
  5.700000000000001E-003    1.176348734946188E-002
  5.800000000000001E-003    1.218950305370956E-002
  5.900000000000002E-003    1.262821207004561E-002
  6.000000000000001E-003    1.307987252786958E-002
  6.100000000000001E-003    1.354474012284907E-002
  6.200000000000002E-003    1.402307123417985E-002
  6.300000000000002E-003    1.451512270805647E-002
  6.400000000000001E-003    1.502114843851677E-002
  6.500000000000001E-003    1.554140493247612E-002
  6.600000000000002E-003    1.607614156747793E-002
  6.700000000000001E-003    1.662560891427346E-002
  6.800000000000001E-003    1.719005569380841E-002
  6.900000000000002E-003    1.776972611746347E-002
  7.000000000000001E-003    1.836486173334810E-002
  7.100000000000001E-003    1.897569899428340E-002
  7.200000000000002E-003    1.960247154646690E-002
  7.300000000000002E-003    2.024540733105507E-002
  7.400000000000001E-003    2.090472976016688E-002
  7.500000000000001E-003    2.158065753219995E-002
  7.600000000000002E-003    2.227340220924874E-002
  7.700000000000001E-003    2.298316851464869E-002
  7.800000000000001E-003    2.371015660015959E-002
  7.900000000000001E-003    2.445455985586958E-002
  8.000000000000002E-003    2.521655979234660E-002
  8.100000000000001E-003    2.599633339913471E-002
  8.200000000000001E-003    2.679404744287912E-002
  8.300000000000002E-003    2.760986038133434E-002
  8.400000000000001E-003    2.844391888827891E-002
  8.500000000000002E-003    2.929635997527058E-002
  8.600000000000002E-003    3.016730754516296E-002
  8.700000000000001E-003    3.105687509403024E-002
  8.800000000000002E-003    3.196516296619352E-002
  8.900000000000002E-003    3.289225605850366E-002
  9.000000000000001E-003    3.383822871005178E-002
  9.100000000000002E-003    3.480313296307315E-002
  9.200000000000002E-003    3.578701253399580E-002
  9.300000000000001E-003    3.678988862452481E-002
  9.400000000000002E-003    3.781177105734237E-002
  9.500000000000001E-003    3.885264993039585E-002
  9.600000000000001E-003    3.991249449967096E-002
  9.700000000000002E-003    4.099126083874422E-002
  9.800000000000001E-003    4.208888188566350E-002
  9.900000000000001E-003    4.320526891468682E-002
  1.000000000000000E-002    4.434031704499565E-002
  1.010000000000000E-002    4.549389651123546E-002
  1.020000000000000E-002    4.666585675334396E-002
  1.030000000000000E-002    4.785602649656417E-002
  1.040000000000000E-002    4.906420765619398E-002
  1.050000000000000E-002    5.029017588884828E-002
  1.060000000000000E-002    5.153368804410217E-002
  1.070000000000000E-002    5.279446921587431E-002
  1.080000000000000E-002    5.407222002327911E-002
  1.090000000000000E-002    5.536661131243950E-002
  1.100000000000000E-002    5.667728048775578E-002
  1.110000000000000E-002    5.800384393364937E-002
  1.120000000000000E-002    5.934587883247335E-002
  1.130000000000000E-002    6.070293656795827E-002
  1.140000000000000E-002    6.207453493402575E-002
  1.150000000000000E-002    6.346016402790441E-002
  1.160000000000000E-002    6.485926950536615E-002
  1.170000000000000E-002    6.627127237851414E-002
  1.180000000000000E-002    6.769555972788581E-002
  1.190000000000000E-002    6.913148348892706E-002
  1.200000000000000E-002    7.057836153883462E-002
  1.210000000000000E-002    7.203547940094748E-002
  1.220000000000000E-002    7.350207509289416E-002
  1.230000000000000E-002    7.497736631880479E-002
  1.240000000000000E-002    7.646052485331667E-002
  1.250000000000000E-002    7.795068735250409E-002
  1.260000000000000E-002    7.944694878166811E-002
  1.270000000000000E-002    8.094837109416955E-002
  1.280000000000000E-002    8.245397972464971E-002
  1.290000000000000E-002    8.396274481793191E-002
  1.300000000000000E-002    8.547361306255731E-002
  1.310000000000000E-002    8.698548481542864E-002
  1.320000000000000E-002    8.849721027649110E-002
  1.330000000000000E-002    9.000761503373092E-002
  1.340000000000000E-002    9.151546725092970E-002
  1.350000000000000E-002    9.301950181936122E-002
  1.360000000000000E-002    9.451841999216867E-002
  1.370000000000000E-002    9.601086329509245E-002
  1.380000000000000E-002    9.749545189290862E-002
  1.390000000000000E-002    9.897074890170755E-002
  1.400000000000000E-002    0.100435294063233     
  1.410000000000000E-002    0.101887567921702     
  1.420000000000000E-002    0.103326026607070     
  1.430000000000000E-002    0.104749085091656     
  1.440000000000000E-002    0.106155114631983     
  1.450000000000000E-002    0.107542443470279     
  1.460000000000000E-002    0.108909374838675     
  1.470000000000000E-002    0.110254156472078     
  1.480000000000000E-002    0.111575015983410     
  1.490000000000000E-002    0.112870125499200     
  1.500000000000000E-002    0.114137637036336     
  1.510000000000000E-002    0.115375656122459     
  1.520000000000000E-002    0.116582259504632     
  1.530000000000000E-002    0.117755477697036     
  1.540000000000000E-002    0.118893324497551     
  1.550000000000000E-002    0.119993766861933     
  1.560000000000000E-002    0.121054748834475     
  1.570000000000000E-002    0.122074176654666     
  1.580000000000000E-002    0.123049941989635     
  1.590000000000000E-002    0.123979888171818     
  1.600000000000000E-002    0.124861853616230     
  1.610000000000000E-002    0.125693636267802     
  1.620000000000000E-002    0.126473013420472     
  1.630000000000000E-002    0.127197754740002     
  1.640000000000000E-002    0.127865594284071     
  1.650000000000000E-002    0.128474243607009     
  1.660000000000000E-002    0.129021413818613     
  1.670000000000000E-002    0.129504801093132     
  1.680000000000000E-002    0.129922070822406     
  1.690000000000000E-002    0.130270897537822     
  1.700000000000000E-002    0.130548919723542     
  1.710000000000000E-002    0.130753796001728     
  1.720000000000000E-002    0.130883159317939     
  1.730000000000000E-002    0.130934635750289     
  1.740000000000000E-002    0.130905858661463     
  1.750000000000000E-002    0.130794468879777     
  1.760000000000000E-002    0.130598106665110     
  1.770000000000000E-002    0.130314408029039     
  1.780000000000000E-002    0.129941010393734     
  1.790000000000000E-002    0.129475591176625     
  1.800000000000000E-002    0.128915824816261     
  1.810000000000000E-002    0.128259412449265     
  1.820000000000000E-002    0.127504052517286     
  1.830000000000000E-002    0.126647474383095     
  1.840000000000000E-002    0.125687445653852     
  1.850000000000000E-002    0.124621734682076     
  1.860000000000000E-002    0.123448165061852     
  1.870000000000000E-002    0.122164573865400     