# vtk DataFile Version 3.1
material model VTK file
ASCII
DATASET UNSTRUCTURED_GRID
POINTS         2700 float
      0.000000E+00      0.000000E+00      0.100000E+01
      0.397778E+01      0.000000E+00      0.100000E+01
      0.000000E+00      0.000000E+00      0.493333E+01
      0.397778E+01      0.000000E+00      0.493333E+01
      0.397778E+01      0.000000E+00      0.100000E+01
      0.795556E+01      0.000000E+00      0.100000E+01
      0.397778E+01      0.000000E+00      0.493333E+01
      0.795556E+01      0.000000E+00      0.493333E+01
      0.795556E+01      0.000000E+00      0.100000E+01
      0.119333E+02      0.000000E+00      0.100000E+01
      0.795556E+01      0.000000E+00      0.493333E+01
      0.119333E+02      0.000000E+00      0.493333E+01
      0.119333E+02      0.000000E+00      0.100000E+01
      0.159111E+02      0.000000E+00      0.100000E+01
      0.119333E+02      0.000000E+00      0.493333E+01
      0.159111E+02      0.000000E+00      0.493333E+01
      0.159111E+02      0.000000E+00      0.100000E+01
      0.198889E+02      0.000000E+00      0.100000E+01
      0.159111E+02      0.000000E+00      0.493333E+01
      0.198889E+02      0.000000E+00      0.493333E+01
      0.198889E+02      0.000000E+00      0.100000E+01
      0.238667E+02      0.000000E+00      0.100000E+01
      0.198889E+02      0.000000E+00      0.493333E+01
      0.238667E+02      0.000000E+00      0.493333E+01
      0.238667E+02      0.000000E+00      0.100000E+01
      0.278444E+02      0.000000E+00      0.100000E+01
      0.238667E+02      0.000000E+00      0.493333E+01
      0.278444E+02      0.000000E+00      0.493333E+01
      0.278444E+02      0.000000E+00      0.100000E+01
      0.318222E+02      0.000000E+00      0.100000E+01
      0.278444E+02      0.000000E+00      0.493333E+01
      0.318222E+02      0.000000E+00      0.493333E+01
      0.318222E+02      0.000000E+00      0.100000E+01
      0.358000E+02      0.000000E+00      0.100000E+01
      0.318222E+02      0.000000E+00      0.493333E+01
      0.358000E+02      0.000000E+00      0.493333E+01
      0.358000E+02      0.000000E+00      0.100000E+01
      0.397778E+02      0.000000E+00      0.100000E+01
      0.358000E+02      0.000000E+00      0.493333E+01
      0.397778E+02      0.000000E+00      0.493333E+01
      0.397778E+02      0.000000E+00      0.100000E+01
      0.437556E+02      0.000000E+00      0.100000E+01
      0.397778E+02      0.000000E+00      0.493333E+01
      0.437556E+02      0.000000E+00      0.493333E+01
      0.437556E+02      0.000000E+00      0.100000E+01
      0.477333E+02      0.000000E+00      0.100000E+01
      0.437556E+02      0.000000E+00      0.493333E+01
      0.477333E+02      0.000000E+00      0.493333E+01
      0.477333E+02      0.000000E+00      0.100000E+01
      0.517111E+02      0.000000E+00      0.100000E+01
      0.477333E+02      0.000000E+00      0.493333E+01
      0.517111E+02      0.000000E+00      0.493333E+01
      0.517111E+02      0.000000E+00      0.100000E+01
      0.556889E+02      0.000000E+00      0.100000E+01
      0.517111E+02      0.000000E+00      0.493333E+01
      0.556889E+02      0.000000E+00      0.493333E+01
      0.556889E+02      0.000000E+00      0.100000E+01
      0.596667E+02      0.000000E+00      0.100000E+01
      0.556889E+02      0.000000E+00      0.493333E+01
      0.596667E+02      0.000000E+00      0.493333E+01
      0.596667E+02      0.000000E+00      0.100000E+01
      0.636444E+02      0.000000E+00      0.100000E+01
      0.596667E+02      0.000000E+00      0.493333E+01
      0.636444E+02      0.000000E+00      0.493333E+01
      0.636444E+02      0.000000E+00      0.100000E+01
      0.676222E+02      0.000000E+00      0.100000E+01
      0.636444E+02      0.000000E+00      0.493333E+01
      0.676222E+02      0.000000E+00      0.493333E+01
      0.676222E+02      0.000000E+00      0.100000E+01
      0.716000E+02      0.000000E+00      0.100000E+01
      0.676222E+02      0.000000E+00      0.493333E+01
      0.716000E+02      0.000000E+00      0.493333E+01
      0.716000E+02      0.000000E+00      0.100000E+01
      0.755778E+02      0.000000E+00      0.100000E+01
      0.716000E+02      0.000000E+00      0.493333E+01
      0.755778E+02      0.000000E+00      0.493333E+01
      0.755778E+02      0.000000E+00      0.100000E+01
      0.795556E+02      0.000000E+00      0.100000E+01
      0.755778E+02      0.000000E+00      0.493333E+01
      0.795556E+02      0.000000E+00      0.493333E+01
      0.795556E+02      0.000000E+00      0.100000E+01
      0.835333E+02      0.000000E+00      0.100000E+01
      0.795556E+02      0.000000E+00      0.493333E+01
      0.835333E+02      0.000000E+00      0.493333E+01
      0.835333E+02      0.000000E+00      0.100000E+01
      0.875111E+02      0.000000E+00      0.100000E+01
      0.835333E+02      0.000000E+00      0.493333E+01
      0.875111E+02      0.000000E+00      0.493333E+01
      0.875111E+02      0.000000E+00      0.100000E+01
      0.914889E+02      0.000000E+00      0.100000E+01
      0.875111E+02      0.000000E+00      0.493333E+01
      0.914889E+02      0.000000E+00      0.493333E+01
      0.914889E+02      0.000000E+00      0.100000E+01
      0.954667E+02      0.000000E+00      0.100000E+01
      0.914889E+02      0.000000E+00      0.493333E+01
      0.954667E+02      0.000000E+00      0.493333E+01
      0.954667E+02      0.000000E+00      0.100000E+01
      0.994444E+02      0.000000E+00      0.100000E+01
      0.954667E+02      0.000000E+00      0.493333E+01
      0.994444E+02      0.000000E+00      0.493333E+01
      0.994444E+02      0.000000E+00      0.100000E+01
      0.103422E+03      0.000000E+00      0.100000E+01
      0.994444E+02      0.000000E+00      0.493333E+01
      0.103422E+03      0.000000E+00      0.493333E+01
      0.103422E+03      0.000000E+00      0.100000E+01
      0.107400E+03      0.000000E+00      0.100000E+01
      0.103422E+03      0.000000E+00      0.493333E+01
      0.107400E+03      0.000000E+00      0.493333E+01
      0.107400E+03      0.000000E+00      0.100000E+01
      0.111378E+03      0.000000E+00      0.100000E+01
      0.107400E+03      0.000000E+00      0.493333E+01
      0.111378E+03      0.000000E+00      0.493333E+01
      0.111378E+03      0.000000E+00      0.100000E+01
      0.115356E+03      0.000000E+00      0.100000E+01
      0.111378E+03      0.000000E+00      0.493333E+01
      0.115356E+03      0.000000E+00      0.493333E+01
      0.115356E+03      0.000000E+00      0.100000E+01
      0.119333E+03      0.000000E+00      0.100000E+01
      0.115356E+03      0.000000E+00      0.493333E+01
      0.119333E+03      0.000000E+00      0.493333E+01
      0.119333E+03      0.000000E+00      0.100000E+01
      0.123311E+03      0.000000E+00      0.100000E+01
      0.119333E+03      0.000000E+00      0.493333E+01
      0.123311E+03      0.000000E+00      0.493333E+01
      0.123311E+03      0.000000E+00      0.100000E+01
      0.127289E+03      0.000000E+00      0.100000E+01
      0.123311E+03      0.000000E+00      0.493333E+01
      0.127289E+03      0.000000E+00      0.493333E+01
      0.127289E+03      0.000000E+00      0.100000E+01
      0.131267E+03      0.000000E+00      0.100000E+01
      0.127289E+03      0.000000E+00      0.493333E+01
      0.131267E+03      0.000000E+00      0.493333E+01
      0.131267E+03      0.000000E+00      0.100000E+01
      0.135244E+03      0.000000E+00      0.100000E+01
      0.131267E+03      0.000000E+00      0.493333E+01
      0.135244E+03      0.000000E+00      0.493333E+01
      0.135244E+03      0.000000E+00      0.100000E+01
      0.139222E+03      0.000000E+00      0.100000E+01
      0.135244E+03      0.000000E+00      0.493333E+01
      0.139222E+03      0.000000E+00      0.493333E+01
      0.139222E+03      0.000000E+00      0.100000E+01
      0.143200E+03      0.000000E+00      0.100000E+01
      0.139222E+03      0.000000E+00      0.493333E+01
      0.143200E+03      0.000000E+00      0.493333E+01
      0.143200E+03      0.000000E+00      0.100000E+01
      0.147178E+03      0.000000E+00      0.100000E+01
      0.143200E+03      0.000000E+00      0.493333E+01
      0.147178E+03      0.000000E+00      0.493333E+01
      0.147178E+03      0.000000E+00      0.100000E+01
      0.151156E+03      0.000000E+00      0.100000E+01
      0.147178E+03      0.000000E+00      0.493333E+01
      0.151156E+03      0.000000E+00      0.493333E+01
      0.151156E+03      0.000000E+00      0.100000E+01
      0.155133E+03      0.000000E+00      0.100000E+01
      0.151156E+03      0.000000E+00      0.493333E+01
      0.155133E+03      0.000000E+00      0.493333E+01
      0.155133E+03      0.000000E+00      0.100000E+01
      0.159111E+03      0.000000E+00      0.100000E+01
      0.155133E+03      0.000000E+00      0.493333E+01
      0.159111E+03      0.000000E+00      0.493333E+01
      0.159111E+03      0.000000E+00      0.100000E+01
      0.163089E+03      0.000000E+00      0.100000E+01
      0.159111E+03      0.000000E+00      0.493333E+01
      0.163089E+03      0.000000E+00      0.493333E+01
      0.163089E+03      0.000000E+00      0.100000E+01
      0.167067E+03      0.000000E+00      0.100000E+01
      0.163089E+03      0.000000E+00      0.493333E+01
      0.167067E+03      0.000000E+00      0.493333E+01
      0.167067E+03      0.000000E+00      0.100000E+01
      0.171044E+03      0.000000E+00      0.100000E+01
      0.167067E+03      0.000000E+00      0.493333E+01
      0.171044E+03      0.000000E+00      0.493333E+01
      0.171044E+03      0.000000E+00      0.100000E+01
      0.175022E+03      0.000000E+00      0.100000E+01
      0.171044E+03      0.000000E+00      0.493333E+01
      0.175022E+03      0.000000E+00      0.493333E+01
      0.175022E+03      0.000000E+00      0.100000E+01
      0.179000E+03      0.000000E+00      0.100000E+01
      0.175022E+03      0.000000E+00      0.493333E+01
[...]
POINT_DATA             2700
SCALARS gll_data float
LOOKUP_TABLE default
   942.659976176217     
   942.659976176217     
   910.248544648901     
   892.499566629073     
   942.659976176217     
   897.666264499655     
   892.499566629073     
   908.255662782953     
   897.666264499655     
   878.599849972644     
   908.255662782953     
   874.933289913118     
   878.599849972644     
   872.113694091613     
   874.933289913118     
   838.857172219506     
   872.113694091613     
   852.665834816134     
   838.857172219506     
   817.381546717543     
   852.665834816134     
   869.829057764506     
   817.381546717543     
   814.649491638851     
   869.829057764506     
   902.362138601953     
   814.649491638851     
   833.878481193207     
   902.362138601953     
   933.815751116586     
   833.878481193207     
   888.607476281338     
   933.815751116586     
   941.989124196186     
   888.607476281338     
   918.822313909862     
   941.989124196186     
   931.973942393123     
   918.822313909862     
   920.441519751789     
   931.973942393123     
   942.266485360199     
   920.441519751789     
   935.975784227628     
   942.266485360199     
   942.659976176217     
   935.975784227628     
   935.886346291057     
   942.659976176217     
   942.659976176217     
   935.886346291057     
   912.220518252836     
   942.659976176217     
   942.392159105132     
   912.220518252836     
   924.231757023600     
   942.392159105132     
   939.523742785356     
   924.231757023600     
   937.252860503028     
   939.523742785356     
   940.592513189081     
   937.252860503028     
   936.147092871767     
   940.592513189081     
   939.079826367731     
   936.147092871767     
   934.763619654469     
   939.079826367731     
   925.356207565574     
   934.763619654469     
   930.755912218865     
   925.356207565574     
   917.276620510432     
   930.755912218865     
   913.350885888831     
   917.276620510432     
   919.766373084888     
   913.350885888831     
   893.956418442821     
   919.766373084888     
   923.815174201776     
   893.956418442821     
   928.643745453953     
   923.815174201776     
   931.255678924411     
   928.643745453953     
   932.219372494878     
   931.255678924411     
   930.232984881205     
   932.219372494878     
   929.349254211859     
   930.232984881205     
   920.050297113243     
   929.349254211859     
   921.314626548404     
   920.050297113243     
   921.288449810997     
   921.314626548404     
   885.351790269278     
   921.288449810997     
   912.989739400040     
   885.351790269278     
   908.510191342828     
   912.989739400040     
   923.534413361921     
   908.510191342828     
   932.722103935864     
   923.534413361921     
   937.963375625766     
   932.722103935864     
   935.189323793658     
   937.963375625766     
   942.659976176217     
   935.189323793658     
   936.049553945291     
   942.659976176217     
   942.659976176217     
   936.049553945291     
   932.978135783808     
   942.659976176217     
   941.734318513549     
   932.978135783808     
   937.234383181529     
   941.734318513549     
   941.142339206432     
   937.234383181529     
   926.150132657038     
   941.142339206432     
   934.671861064042     
   926.150132657038     
   934.638871801394     
   934.671861064042     
   924.026844082964     
   934.638871801394     
   918.111819397290     
   924.026844082964     
   920.787837546282     
   918.111819397290     
   909.192567082967     
   920.787837546282     
   937.632440404094     
   909.192567082967     
   913.631058854892     
   937.632440404094     
   942.659976176217     
   913.631058854892     
   917.497915166075     
   942.659976176217     
   942.659976176217     
   917.497915166075     
   907.000413867601     
   942.659976176217     
   942.659976176217     
   907.000413867601     
   914.411444156631     
   942.659976176217     
   942.659976176217     
   914.411444156631     
   936.696895148506     
   942.659976176217     
   940.779283847563     
   936.696895148506     
   923.146162532783     
   940.779283847563     
   942.659976176217     
   923.146162532783     
   930.857985144183     
   942.659976176217     
   942.659976176217     
   930.857985144183     
   934.146593770855     
   942.659976176217     
   935.080433732180     
   934.146593770855     
   942.659982842271     
   935.080433732180     
   916.354067572795     
   942.659982842271     
   940.686325804194     
   910.248544648901     
   892.499566629073     
   918.136849673800     
   930.367690208731     
   892.499566629073     
   908.255662782953     
   930.367690208731     
   867.524773372225     
   908.255662782953     
   874.933289913118     
   867.524773372225     
   822.504989218535     
   874.933289913118     
   838.857172219506     
   822.504989218535     
   817.392757464643     
   838.857172219506     
   817.381546717543     
   817.392757464643     
   822.458862945296     
   817.381546717543     
   814.649491638851     
   822.458862945296     
   815.369979837753     
   814.649491638851     
   833.878481193207     
   815.369979837753     
   830.499801070496     
   833.878481193207     
   888.607476281338     
   830.499801070496     
   868.952707658969     
   888.607476281338     
   918.822313909862     
   868.952707658969     
   866.490912249824     
   918.822313909862     
   920.441519751789     
   866.490912249824     
   886.172166296844     
   920.441519751789     
   935.975784227628     
   886.172166296844     
   922.963134704576     
   935.975784227628     
   935.886346291057     
   922.963134704576     
   893.945731791927     
   935.886346291057     
   912.220518252836     
   893.945731791927     
   879.364926399686     
   912.220518252836     
   924.231757023600     
   879.364926399686     
   892.564652253260     
   924.231757023600     
   937.252860503028     
   892.564652253260     
   890.425162925766     
   937.252860503028     
   936.147092871767     
   890.425162925766     
   893.386349950613     
   936.147092871767     
   934.763619654469     
   893.386349950613     
   918.429804022409     
   934.763619654469     
   930.755912218865     
   918.429804022409     
   922.224409551358     
   930.755912218865     
   913.350885888831     
   922.224409551358     
   902.938367994302     
   913.350885888831     
   893.956418442821     
   902.938367994302     
   909.382751086322     
   893.956418442821     
   928.643745453953     
   909.382751086322     
   930.745594374307     
   928.643745453953     
   932.219372494878     
   930.745594374307     
   929.381884409516     
   932.219372494878     
   929.349254211859     
   929.381884409516     
   932.441116964923     
   929.349254211859     
   921.314626548404     
   932.441116964923     
   917.599175764752     
   921.314626548404     
   885.351790269278     
   917.599175764752     
   896.156248915566     
   885.351790269278     
   908.510191342828     
   896.156248915566     
   896.059281328020     
   908.510191342828     
   932.722103935864     
   896.059281328020     
   916.227052088830     
   932.722103935864     
   935.189323793658     
   916.227052088830     
   929.332953249811     
   935.189323793658     
   936.049553945291     
   929.332953249811     
   936.292107043034     
   936.049553945291     
   932.978135783808     
   936.292107043034     
   932.462042338063     
   932.978135783808     
   937.234383181529     
   932.462042338063     
   931.454145707364     
   937.234383181529     
   926.150132657038     
   931.454145707364     
   897.395981973523     
   926.150132657038     
   934.638871801394     
   897.395981973523     
   898.313229981140     
   934.638871801394     
   918.111819397290     
   898.313229981140     
   899.177798388834     
   918.111819397290     
   909.192567082967     
   899.177798388834     
   884.766175806659     
   909.192567082967     
   913.631058854892     
   884.766175806659     
   879.533703528399     
   913.631058854892     
   917.497915166075     
   879.533703528399     
   868.201645769230     
   917.497915166075     
   907.000413867601     
   868.201645769230     
   875.779547306326     
   907.000413867601     
   914.411444156631     
   875.779547306326     
   910.856275885796     
   914.411444156631     
   936.696895148506     
   910.856275885796     
   916.322512782956     
   936.696895148506     
   923.146162532783     
   916.322512782956     
   871.412642229700     
   923.146162532783     
   930.857985144183     
   871.412642229700     
   861.079760671166     
   930.857985144183     
   934.146593770855     
   861.079760671166     
   893.265451157009     
   934.146593770855     
   942.659982842271     
   893.265451157009     
   919.057998434926     
   942.659982842271     
   940.686325804194     
   919.057998434926     
   925.221574101803     
   918.136849673800     
   930.367690208731     
   936.935373480859     
   910.764161184070     
   930.367690208731     
   867.524773372225     
   910.764161184070     
   818.388125195204     
   867.524773372225     
   822.504989218535     
   818.388125195204     
   801.535322941525     
   822.504989218535     
   817.392757464643     
   801.535322941525     
   812.664564170305     
   817.392757464643     
   822.458862945296     
   812.664564170305     
   801.084475697869     
   822.458862945296     
   815.369979837753     
   801.084475697869     
   785.415875063518     
   815.369979837753     
   830.499801070496     
   785.415875063518     
   813.312571854836     
   830.499801070496     
   868.952707658969     
   813.312571854836     
   821.186705564287     
   868.952707658969     
   866.490912249824     
   821.186705564287     
   794.469044715406     
   866.490912249824     
   886.172166296844     
   794.469044715406     
   829.876752322089     
   886.172166296844     
   922.963134704576     
   829.876752322089     
   857.951477620205     
   922.963134704576     
   893.945731791927     
   857.951477620205     
   854.293685147210     
   893.945731791927     
   879.364926399686     
   854.293685147210     
   870.783633331418     
   879.364926399686     
   892.564652253260     
   870.783633331418     
   872.179376847400     
   892.564652253260     
   890.425162925766     
   872.179376847400     
   864.328256360425     
   890.425162925766     
   893.386349950613     
   864.328256360425     
   862.288384609755     
   893.386349950613     
   918.429804022409     
   862.288384609755     
   884.793631645232     
   918.429804022409     
   922.224409551358     
   884.793631645232     
   896.069590269728     
   922.224409551358     
   902.938367994302     
   896.069590269728     
   887.119155011087     
   902.938367994302     
   909.382751086322     
   887.119155011087     
   907.490780037193     
   909.382751086322     
   930.745594374307     
   907.490780037193     
   930.204830466035     
   930.745594374307     
   929.381884409516     
   930.204830466035     
   929.120683524289     
   929.381884409516     
   932.441116964923     
   929.120683524289     
   929.919567294049     
   932.441116964923     
   917.599175764752     
   929.919567294049     
   924.363845004488     
   917.599175764752     
   896.156248915566     
   924.363845004488     
   910.993456543790     
   896.156248915566     
   896.059281328020     
   910.993456543790     
   894.444469247102     
   896.059281328020     
   916.227052088830     
   894.444469247102     
   898.990114617554     
   916.227052088830     
   929.332953249811     
   898.990114617554     
   915.587399583474     
   929.332953249811     
   936.292107043034     
   915.587399583474     
   910.656073081979     
   936.292107043034     
   932.462042338063     
   910.656073081979     
   907.070999256345     
   932.462042338063     
   931.454145707364     
   907.070999256345     
   892.572570145489     
   931.454145707364     
   897.395981973523     
   892.572570145489     
   859.296632746475     
   897.395981973523     
   898.313229981140     
   859.296632746475     
   862.754829333688     
   898.313229981140     
   899.177798388834     
   862.754829333688     
   885.141783051445     
   899.177798388834     
   884.766175806659     
   885.141783051445     
   876.239980815569     
   884.766175806659     
   879.533703528399     
   876.239980815569     
   862.468925576955     
   879.533703528399     
   868.201645769230     
   862.468925576955     
   867.474349024639     
   868.201645769230     
   875.779547306326     
   867.474349024639     
   870.347888344548     
   875.779547306326     
   910.856275885796     
   870.347888344548     
   887.754773099239     
   910.856275885796     
   916.322512782956     
   887.754773099239     
   900.325061359750     
   916.322512782956     
   871.412642229700     
   900.325061359750     
   872.414602953131     
   871.412642229700     
   861.079760671166     
   872.414602953131     
   846.288530049711     
   861.079760671166     
   893.265451157009     
   846.288530049711     
   857.949524684484     
   893.265451157009     
   919.057998434926     
   857.949524684484     
   871.686407851413     
   919.057998434926     
   925.221574101803     
   871.686407851413     
   855.768475453587     
   936.935373480859     
   910.764161184070     
   864.170706591078     
   763.006273588063     
   910.764161184070     
   818.388125195204     
   763.006273588063     
   725.364507002719     
   818.388125195204     
   801.535322941525     
   725.364507002719     
   716.966258134178     
   801.535322941525     
   812.664564170305     
   716.966258134178     
   684.298041771830     
   812.664564170305     
   801.084475697869     
   684.298041771830     
   655.670784902244     
   801.084475697869     
   785.415875063518     
   655.670784902244     
   666.749945891120     
   785.415875063518     
   813.312571854836     
   666.749945891120     
   683.411504965314     
   813.312571854836     
   821.186705564287     
   683.411504965314     
   647.289362708378     
   821.186705564287     
   794.469044715406     
   647.289362708378     
   642.951181908709     
   794.469044715406     
   829.876752322089     
   642.951181908709     
   689.669065837866     
   829.876752322089     
   857.951477620205     
   689.669065837866     
   702.086661492114     
   857.951477620205     
   854.293685147210     
   702.086661492114     
   741.065436328888     
   854.293685147210     
   870.783633331418     
   741.065436328888     
   780.558668737985     
   870.783633331418     
   872.179376847400     
   780.558668737985     
   796.652584577816     
   872.179376847400     
   864.328256360425     
   796.652584577816     
   848.995038481834     
   864.328256360425     
   862.288384609755     
   848.995038481834     
   873.675214589037     
   862.288384609755     
   884.793631645232     
   873.675214589037     
   867.813413174812     
   884.793631645232     
   896.069590269728     
   867.813413174812     
   873.923392826163     
   896.069590269728     
   887.119155011087     
   873.923392826163     
   885.966558893258     
   887.119155011087     
   907.490780037193     
   885.966558893258     
   898.560484060677     
   907.490780037193     
   930.204830466035     
   898.560484060677     
   914.015992079396     
   930.204830466035     
   929.120683524289     
   914.015992079396     
   923.882861912215     
   929.120683524289     
   929.919567294049     
   923.882861912215     
   922.865890061377     
   929.919567294049     
   924.363845004488     
   922.865890061377     
   924.813054576977     
   924.363845004488     
   910.993456543790     
   924.813054576977     
   921.708185339287     
   910.993456543790     
   894.444469247102     
   921.708185339287     
   893.529706730151     
   894.444469247102     
   898.990114617554     
   893.529706730151     
   876.139282651584     
   898.990114617554     
   915.587399583474     
   876.139282651584     
   886.970288529559     
   915.587399583474     
   910.656073081979     
   886.970288529559     
   879.226560910503     
   910.656073081979     
   907.070999256345     
   879.226560910503     
   877.455937951271     
   907.070999256345     
   892.572570145489     
   877.455937951271     
   872.018266381817     
   892.572570145489     
   859.296632746475     
   872.018266381817     
   843.172682599235     
   859.296632746475     
   862.754829333688     
   843.172682599235     
   838.351576658544     
   862.754829333688     
   885.141783051445     
   838.351576658544     
   857.298321848444     
   885.141783051445     
   876.239980815569     
   857.298321848444     
   865.860589231407     
   876.239980815569     
   862.468925576955     
   865.860589231407     
   854.082476909414     
   862.468925576955     
   867.474349024639     
   854.082476909414     
   865.114916794620     
   867.474349024639     
   870.347888344548     
   865.114916794620     
   877.335582281042     
   870.347888344548     
   887.754773099239     
   877.335582281042     
   865.597475233202     
   887.754773099239     
   900.325061359750     
   865.597475233202     
   867.251465720587     
   900.325061359750     
   872.414602953131     
   867.251465720587     
   858.478522943854     
   872.414602953131     
   846.288530049711     
   858.478522943854     
   839.544970443448     
   846.288530049711     
   857.949524684484     
   839.544970443448     
   842.461052026778     
   857.949524684484     
   871.686407851413     
   842.461052026778     
   852.313420977452     
   871.686407851413     
   855.768475453587     
   852.313420977452     
   826.857784868858     
   864.170706591078     
   763.006273588063     
   618.692133275168     
   594.795236847188     
   763.006273588063     
   725.364507002719     
   594.795236847188     
   613.278502768225     
   725.364507002719     
   716.966258134178     
   613.278502768225     
   569.525205635969     
   716.966258134178     
   684.298041771830     
   569.525205635969     
   549.219836888429     
   684.298041771830     
   655.670784902244     
   549.219836888429     
   557.730348831307     
   655.670784902244     
   666.749945891120     
   557.730348831307     
   566.134454092828     
   666.749945891120     
   683.411504965314     
   566.134454092828     
   563.978096460376     
   683.411504965314     
   647.289362708378     
   563.978096460376     
   535.586659031912     
   647.289362708378     
   642.951181908709     
   535.586659031912     
   547.367255656377     
   642.951181908709     
   689.669065837866     
   547.367255656377     
   558.284251504394     
   689.669065837866     
   702.086661492114     
   558.284251504394     
   557.774416362741     
   702.086661492114     
   741.065436328888     
   557.774416362741     
   603.537770815292     
   741.065436328888     
   780.558668737985     
   603.537770815292     
   613.645329923037     
   780.558668737985     
   796.652584577816     
   613.645329923037     
   637.038329217312     
   796.652584577816     
   848.995038481834     
   637.038329217312     
   707.322623184095     
   848.995038481834     
   873.675214589037     
   707.322623184095     
   765.274472275371     
   873.675214589037     
   867.813413174812     
   765.274472275371     
   821.022946979177     
   867.813413174812     
   873.923392826163     
   821.022946979177     
   846.318418082615     
   873.923392826163     
   885.966558893258     
   846.318418082615     
   850.966804521372     
   885.966558893258     