 -4.000000000000000E-002    0.000000000000000E+000
 -3.990000000000000E-002    1.459440772643186E-007
 -3.980000000000000E-002    4.311900533572817E-007
 -3.970000000000000E-002    8.403642677988891E-007
 -3.960000000000000E-002    1.351433268563034E-006
 -3.950000000000000E-002    1.938399168315857E-006
 -3.940000000000000E-002    2.574291844616331E-006
 -3.930000000000000E-002    3.234098910940593E-006
 -3.920000000000000E-002    3.897284398419556E-006
 -3.910000000000000E-002    4.549600874755395E-006
 -3.900000000000000E-002    5.183992094713924E-006
 -3.890000000000000E-002    5.800496667660038E-006
 -3.880000000000000E-002    6.405195274876703E-006
 -3.870000000000000E-002    7.008360721361825E-006
 -3.860000000000000E-002    7.622074731213701E-006
 -3.850000000000000E-002    8.257643646860793E-006
 -3.840000000000000E-002    8.923156813805228E-006
 -3.830000000000000E-002    9.621524417294715E-006
 -3.820000000000000E-002    1.034925062350940E-005
 -3.810000000000000E-002    1.109610054732126E-005
 -3.800000000000000E-002    1.184570020498077E-005
 -3.790000000000000E-002    1.257698622124038E-005
 -3.780000000000000E-002    1.326630008762180E-005
 -3.770000000000000E-002    1.388982545760747E-005
 -3.760000000000000E-002    1.442605873209114E-005
 -3.750000000000000E-002    1.485794661279340E-005
 -3.740000000000000E-002    1.517442415474735E-005
 -3.730000000000000E-002    1.537111672024721E-005
 -3.720000000000000E-002    1.545012677751186E-005
 -3.710000000000000E-002    1.541891202104270E-005
 -3.700000000000000E-002    1.528841125993587E-005
 -3.690000000000000E-002    1.507067899947686E-005
 -3.680000000000000E-002    1.477629987446434E-005
 -3.670000000000000E-002    1.441196915334438E-005
 -3.660000000000000E-002    1.397855509190366E-005
 -3.650000000000000E-002    1.346988256286933E-005
 -3.640000000000000E-002    1.287241052523400E-005
 -3.630000000000000E-002    1.216588344468400E-005
 -3.620000000000000E-002    1.132482193968031E-005
 -3.610000000000000E-002    1.032070403068139E-005
 -3.600000000000000E-002    9.124553560650060E-006
 -3.590000000000000E-002    7.709599770180034E-006
 -3.580000000000000E-002    6.053637727930949E-006
 -3.570000000000000E-002    4.140834171054572E-006
 -3.560000000000000E-002    1.962716455398051E-006
 -3.550000000000000E-002   -4.818046432009842E-007
 -3.540000000000000E-002   -3.187358181156372E-006
 -3.530000000000000E-002   -6.143866851643554E-006
 -3.520000000000000E-002   -9.338978251476675E-006
 -3.510000000000000E-002   -1.276079181525615E-005
 -3.500000000000000E-002   -1.640066993022946E-005
 -3.490000000000000E-002   -2.025564777404053E-005
 -3.480000000000000E-002   -2.433029623499841E-005
 -3.470000000000000E-002   -2.863771672295064E-005
 -3.460000000000000E-002   -3.319964925262350E-005
 -3.450000000000000E-002   -3.804559131488004E-005
 -3.440000000000000E-002   -4.321109809835174E-005
 -3.430000000000000E-002   -4.873559430023599E-005
 -3.420000000000000E-002   -5.465967343950832E-005
 -3.410000000000000E-002   -6.102255028389456E-005
 -3.400000000000000E-002   -6.785973419223498E-005
 -3.390000000000000E-002   -7.520133101807740E-005
 -3.380000000000000E-002   -8.307112689964610E-005
 -3.370000000000000E-002   -9.148660701771025E-005
 -3.360000000000000E-002   -1.004598980545098E-004
 -3.350000000000000E-002   -1.099994785603751E-004
 -3.340000000000000E-002   -1.201125229361354E-004
 -3.330000000000000E-002   -1.308078067023141E-004
 -3.320000000000000E-002   -1.420984774475192E-004
 -3.310000000000000E-002   -1.540046569768883E-004
 -3.300000000000000E-002   -1.665556778436087E-004
 -3.290000000000000E-002   -1.797915349511884E-004
 -3.280000000000000E-002   -1.937635205236715E-004
 -3.270000000000000E-002   -2.085339833737013E-004
 -3.260000000000000E-002   -2.241751997008420E-004
 -3.250000000000000E-002   -2.407677151231497E-004
 -3.240000000000000E-002   -2.583979308796100E-004
 -3.230000000000000E-002   -2.771558011941887E-004
 -3.220000000000000E-002   -2.971322373648550E-004
 -3.210000000000000E-002   -3.184170586645582E-004
 -3.200000000000000E-002   -3.410974559265404E-004
 -3.190000000000000E-002   -3.652571100367155E-004
 -3.180000000000000E-002   -3.909763816346409E-004
 -3.170000000000000E-002   -4.183330691569266E-004
 -3.160000000000000E-002   -4.474041386069716E-004
 -3.150000000000000E-002   -4.782679273774465E-004
 -3.140000000000000E-002   -5.110072026432536E-004
 -3.130000000000000E-002   -5.457115892764141E-004
 -3.120000000000000E-002   -5.824807800997465E-004
 -3.110000000000000E-002   -6.214265712471164E-004
 -3.100000000000000E-002   -6.626750049510750E-004
 -3.090000000000000E-002   -7.063669288433841E-004
 -3.080000000000000E-002   -7.526581397581953E-004
 -3.070000000000000E-002   -8.017186588952888E-004
 -3.060000000000000E-002   -8.537311837919192E-004
 -3.050000000000000E-002   -9.088884224897480E-004
 -3.040000000000000E-002   -9.673910680693217E-004
 -3.030000000000000E-002   -1.029444600849119E-003
 -3.020000000000000E-002   -1.095257176645749E-003
 -3.010000000000000E-002   -1.165038413903233E-003
 -3.000000000000000E-002   -1.238997111098125E-003
 -2.990000000000000E-002   -1.317342801966354E-003
 -2.980000000000000E-002   -1.400285684059168E-003
 -2.970000000000000E-002   -1.488039863265758E-003
 -2.960000000000000E-002   -1.580825963240813E-003
 -2.950000000000000E-002   -1.678874780072281E-003
 -2.940000000000000E-002   -1.782431703804680E-003
 -2.930000000000000E-002   -1.891759881611895E-003
 -2.920000000000000E-002   -2.007144197327358E-003
 -2.910000000000000E-002   -2.128894001099876E-003
 -2.900000000000000E-002   -2.257344105679505E-003
 -2.890000000000000E-002   -2.392855265581864E-003
 -2.880000000000000E-002   -2.535812632801190E-003
 -2.870000000000000E-002   -2.686624619318579E-003
 -2.860000000000000E-002   -2.845719185395556E-003
 -2.850000000000000E-002   -3.013540599485191E-003
 -2.840000000000000E-002   -3.190546280826544E-003
 -2.830000000000000E-002   -3.377203432387666E-003
 -2.820000000000000E-002   -3.573987842938534E-003
 -2.810000000000000E-002   -3.781381149823278E-003
 -2.800000000000000E-002   -3.999874661545717E-003
 -2.790000000000000E-002   -4.229969226377361E-003
 -2.780000000000000E-002   -4.472179177275415E-003
 -2.770000000000000E-002   -4.727036561289378E-003
 -2.760000000000000E-002   -4.995097089984099E-003
 -2.750000000000000E-002   -5.276945874398725E-003
 -2.740000000000000E-002   -5.573201270018759E-003
 -2.730000000000000E-002   -5.884519886755659E-003
 -2.720000000000000E-002   -6.211599603279482E-003
 -2.710000000000000E-002   -6.555177938706587E-003
 -2.700000000000000E-002   -6.916036783103532E-003
 -2.690000000000000E-002   -7.294994435469068E-003
 -2.680000000000000E-002   -7.692907193779744E-003
 -2.670000000000000E-002   -8.110662647463752E-003
 -2.660000000000000E-002   -8.549178129227838E-003
 -2.650000000000000E-002   -9.009394821487632E-003
 -2.640000000000000E-002   -9.492274604430579E-003
 -2.630000000000000E-002   -9.998801533030000E-003
 -2.620000000000000E-002   -1.052998140459431E-002
 -2.610000000000000E-002   -1.108684255854503E-002
 -2.600000000000000E-002   -1.167043951829015E-002
 -2.590000000000000E-002   -1.228186181158653E-002
 -2.580000000000000E-002   -1.292223520673616E-002
 -2.570000000000000E-002   -1.359273193076611E-002
 -2.560000000000000E-002   -1.429457555407916E-002
 -2.550000000000000E-002   -1.502904426823713E-002
 -2.540000000000000E-002   -1.579747473547893E-002
 -2.530000000000000E-002   -1.660126736888909E-002
 -2.520000000000000E-002   -1.744187820177233E-002
 -2.510000000000000E-002   -1.832082882936591E-002
 -2.500000000000000E-002   -1.923969070859943E-002
 -2.490000000000000E-002   -2.020008981463114E-002
 -2.480000000000000E-002   -2.120369730232842E-002
 -2.470000000000000E-002   -2.225222757728179E-002
 -2.460000000000000E-002   -2.334743808812102E-002
 -2.450000000000000E-002   -2.449112224757135E-002
 -2.440000000000000E-002   -2.568511055990087E-002
 -2.430000000000000E-002   -2.693127736973311E-002
 -2.420000000000000E-002   -2.823153841553479E-002
 -2.410000000000000E-002   -2.958786238745986E-002
 -2.400000000000000E-002   -3.100226703183097E-002
 -2.390000000000000E-002   -3.247683704081746E-002
 -2.380000000000000E-002   -3.401372243884952E-002
 -2.370000000000000E-002   -3.561514487875274E-002
 -2.360000000000000E-002   -3.728340440901077E-002
 -2.350000000000000E-002   -3.902087305631442E-002
 -2.340000000000000E-002   -4.083000245883978E-002
 -2.330000000000000E-002   -4.271332655274506E-002
 -2.320000000000000E-002   -4.467344050066835E-002
 -2.310000000000000E-002   -4.671301366676556E-002
 -2.300000000000000E-002   -4.883477296108323E-002
 -2.290000000000000E-002   -5.104151674580099E-002
 -2.280000000000000E-002   -5.333609262614460E-002
 -2.270000000000000E-002   -5.572140253157932E-002
 -2.260000000000000E-002   -5.820040017541188E-002
 -2.250000000000000E-002   -6.077609684986782E-002
 -2.240000000000000E-002   -6.345156724237512E-002
 -2.230000000000000E-002   -6.622992720522558E-002
 -2.220000000000000E-002   -6.911437616474085E-002
 -2.210000000000000E-002   -7.210817248992733E-002
 -2.200000000000000E-002   -7.521465121436387E-002
 -2.190000000000000E-002   -7.843722404305591E-002
 -2.180000000000000E-002   -8.177939092454073E-002
 -2.170000000000000E-002   -8.524471653392139E-002
 -2.160000000000000E-002   -8.883685637100709E-002
 -2.150000000000000E-002   -9.255953430292760E-002
 -2.140000000000000E-002   -9.641655363753203E-002
 -2.130000000000000E-002   -0.100411775007709     
 -2.120000000000000E-002   -0.104549147137151     
 -2.110000000000000E-002   -0.108832656737416     
 -2.100000000000000E-002   -0.113266341535129     
 -2.090000000000000E-002   -0.117854307709530     
 -2.080000000000000E-002   -0.122600689178827     
 -2.070000000000000E-002   -0.127509671423101     
 -2.060000000000000E-002   -0.132585488639461     
 -2.050000000000000E-002   -0.137832426173587     
 -2.040000000000000E-002   -0.143254805941521     
 -2.030000000000000E-002   -0.148857014724930     
 -2.020000000000000E-002   -0.154643451493456     
 -2.010000000000000E-002   -0.160618591722431     
 -2.000000000000000E-002   -0.166786960116248     
 -1.990000000000000E-002   -0.173153129591175     
 -1.980000000000000E-002   -0.179721693653907     
 -1.970000000000000E-002   -0.186497337013146     
 -1.960000000000000E-002   -0.193484739455148     
 -1.950000000000000E-002   -0.200688633447228     
 -1.940000000000000E-002   -0.208113763293602     
 -1.930000000000000E-002   -0.215764898570656     
 -1.920000000000000E-002   -0.223646807192926     
 -1.910000000000000E-002   -0.231764290427272     
 -1.900000000000000E-002   -0.240122139923618     
 -1.890000000000000E-002   -0.248725114935384     
 -1.880000000000000E-002   -0.257577971994301     
 -1.870000000000000E-002   -0.266685463617537     
 -1.860000000000000E-002   -0.276052292570934     
 -1.850000000000000E-002   -0.285683175402019     
 -1.840000000000000E-002   -0.295582746042490     
 -1.830000000000000E-002   -0.305755655183766     
 -1.820000000000000E-002   -0.316206518606934     
 -1.810000000000000E-002   -0.326939877732211     
 -1.800000000000000E-002   -0.337960236491926     
 -1.790000000000000E-002   -0.349272108471810     
 -1.780000000000000E-002   -0.360879860655913     
 -1.770000000000000E-002   -0.372787864693015     
 -1.760000000000000E-002   -0.385000385455419     
 -1.750000000000000E-002   -0.397521646160373     
 -1.740000000000000E-002   -0.410355691510824     
 -1.730000000000000E-002   -0.423506557177903     
 -1.720000000000000E-002   -0.436978102390708     
 -1.710000000000000E-002   -0.450774057849560     
 -1.700000000000000E-002   -0.464898065373802     
 -1.690000000000000E-002   -0.479353585101115     
 -1.680000000000000E-002   -0.494143924628535     
 -1.670000000000000E-002   -0.509272267578310     
 -1.660000000000000E-002   -0.524741541388896     
 -1.650000000000000E-002   -0.540554600605508     
 -1.640000000000000E-002   -0.556714072494884     
 -1.630000000000000E-002   -0.573222349899856     
 -1.620000000000000E-002   -0.590081689252650     
 -1.610000000000000E-002   -0.607294113716854     
 -1.600000000000000E-002   -0.624861450138571     
 -1.590000000000000E-002   -0.642785336754778     
 -1.580000000000000E-002   -0.661067074531259     
 -1.570000000000000E-002   -0.679707823921994     
 -1.560000000000000E-002   -0.698708449176501     
 -1.550000000000000E-002   -0.718069536178397     
 -1.540000000000000E-002   -0.737791367543506     
 -1.530000000000000E-002   -0.757873996295642     
 -1.520000000000000E-002   -0.778317105809599     
 -1.510000000000000E-002   -0.799120052745106     
 -1.500000000000000E-002   -0.820281854404253     
 -1.490000000000000E-002   -0.841801198002946     
 -1.480000000000000E-002   -0.863676464174383     
 -1.470000000000000E-002   -0.885905562066578     
 -1.460000000000000E-002   -0.908486154588434     
 -1.450000000000000E-002   -0.931415437367574     
 -1.440000000000000E-002   -0.954690215411679     
 -1.430000000000000E-002   -0.978307045693136     
 -1.420000000000000E-002    -1.00226191171788     
 -1.410000000000000E-002    -1.02655047150403     
 -1.400000000000000E-002    -1.05116792664856     
 -1.390000000000000E-002    -1.07610915150076     
 -1.380000000000000E-002    -1.10136844751849     
 -1.370000000000000E-002    -1.12693969796103     
 -1.360000000000000E-002    -1.15281643843311     
 -1.350000000000000E-002    -1.17899151857728     
 -1.340000000000000E-002    -1.20545754877050     
 -1.330000000000000E-002    -1.23220646871308     
 -1.320000000000000E-002    -1.25922981564040     
 -1.310000000000000E-002    -1.28651848688068     
 -1.300000000000000E-002    -1.31406300558412     
 -1.290000000000000E-002    -1.34185331847458     
 -1.280000000000000E-002    -1.36987883602306     
 -1.270000000000000E-002    -1.39812844257063     
 -1.260000000000000E-002    -1.42659057055524     
 -1.250000000000000E-002    -1.45525303790909     
 -1.240000000000000E-002    -1.48410314813305     
 -1.230000000000000E-002    -1.51312766766995     
 -1.220000000000000E-002    -1.54231290291636     
 -1.210000000000000E-002    -1.57164446441305     
 -1.200000000000000E-002    -1.60110763058449     
 -1.190000000000000E-002    -1.63068699359303     
 -1.180000000000000E-002    -1.66036659287355     
 -1.170000000000000E-002    -1.69012995206617     
 -1.160000000000000E-002    -1.71996004042073     
 -1.150000000000000E-002    -1.74983937042613     
 -1.140000000000000E-002    -1.77974967488532     
 -1.130000000000000E-002    -1.80967241528426     
 -1.120000000000000E-002    -1.83958828124148     
 -1.110000000000000E-002    -1.86947755108727     
 -1.100000000000000E-002    -1.89931990742272     
 -1.090000000000000E-002    -1.92909452939975     
 -1.080000000000000E-002    -1.95878011025989     
 -1.070000000000000E-002    -1.98835483323874     
 -1.060000000000000E-002    -2.01779633758848     
 -1.050000000000000E-002    -2.04708184747277     
 -1.040000000000000E-002    -2.07618812051706     
 -1.030000000000000E-002    -2.10509129490317     
 -1.020000000000000E-002    -2.13376730121389     
 -1.010000000000000E-002    -2.16219147501471     
 -1.000000000000000E-002    -2.19033872478883     
 -9.899999999999999E-003    -2.21818353605782     
 -9.800000000000000E-003    -2.24569998112459     
 -9.699999999999999E-003    -2.27286190766127     
 -9.599999999999999E-003    -2.29964277109776     
 -9.500000000000000E-003    -2.32601556597556     
 -9.399999999999999E-003    -2.35195280780621     
 -9.299999999999999E-003    -2.37742710491233     
 -9.200000000000000E-003    -2.40241040637455     
 -9.099999999999999E-003    -2.42687448582804     
 -8.999999999999999E-003    -2.45079092660106     
 -8.900000000000000E-003    -2.47413109587845     
 -8.799999999999999E-003    -2.49686599968327     
 -8.699999999999999E-003    -2.51896689349020     
 -8.600000000000000E-003    -2.54040434483104     
 -8.499999999999999E-003    -2.56114919793713     
 -8.399999999999999E-003    -2.58117186698540     
 -8.300000000000000E-003    -2.60044291216322     
 -8.199999999999999E-003    -2.61893294979869     
 -8.100000000000000E-003    -2.63661256120019     
 -8.000000000000000E-003    -2.65345210990766     
 -7.899999999999999E-003    -2.66942231609241     
 -7.800000000000000E-003    -2.68449372939526     
 -7.699999999999999E-003    -2.69863726667969     
 -7.599999999999999E-003    -2.71182383695491     
 -7.499999999999999E-003    -2.72402430718588     
 -7.399999999999999E-003    -2.73521031878276     
 -7.299999999999999E-003    -2.74535300499720     
 -7.199999999999999E-003    -2.75442448004221     
 -7.100000000000000E-003    -2.76239668383219     
 -6.999999999999999E-003    -2.76924213994904     
 -6.899999999999999E-003    -2.77493371209469     
 -6.800000000000000E-003    -2.77944450133343     
 -6.699999999999999E-003    -2.78274848035015     
 -6.599999999999999E-003    -2.78481951105884     
 -6.499999999999999E-003    -2.78563267593207     
 -6.399999999999999E-003    -2.78516317512361     
 -6.299999999999999E-003    -2.78338683128735     
 -6.199999999999999E-003    -2.78028019767099     
 -6.100000000000000E-003    -2.77582051692358     
 -5.999999999999999E-003    -2.76998579081107     
 -5.899999999999999E-003    -2.76275467852114     
 -5.800000000000000E-003    -2.75410656929154     
 -5.699999999999999E-003    -2.74402188053589     
 -5.599999999999999E-003    -2.73248158434352     
 -5.499999999999999E-003    -2.71946762031760     
 -5.399999999999999E-003    -2.70496283719357     
 -5.299999999999999E-003    -2.68895121081975     
 -5.199999999999999E-003    -2.67141724102391     
 -5.099999999999999E-003    -2.65234702157452     
 -4.999999999999999E-003    -2.63172699015739     
 -4.899999999999999E-003    -2.60954536833174     
 -4.799999999999999E-003    -2.58579110675358     
 -4.699999999999999E-003    -2.56045409922030     
 -4.599999999999999E-003    -2.53352584919386     
 -4.499999999999999E-003    -2.50499895490627     
 -4.399999999999999E-003    -2.47486701503170     
 -4.299999999999999E-003    -2.44312509410990     
 -4.199999999999999E-003    -2.40976943485112     
 -4.099999999999999E-003    -2.37479746828113     
 -3.999999999999999E-003    -2.33820822008513     
 -3.899999999999999E-003    -2.30000161106488     
 -3.799999999999999E-003    -2.26017945018475     
 -3.699999999999999E-003    -2.21874455623421     
 -3.599999999999999E-003    -2.17570101487327     
 -3.499999999999999E-003    -2.13105448149697     
 -3.399999999999999E-003    -2.08481219094640     
 -3.299999999999999E-003    -2.03698249184126     
 -3.199999999999999E-003    -1.98757516604683     
 -3.099999999999999E-003    -1.93660165813787     
 -2.999999999999999E-003    -1.88407476149383     
 -2.899999999999999E-003    -1.83000875360034     
 -2.799999999999999E-003    -1.77441929579800     
 -2.699999999999999E-003    -1.71732375057033     
 -2.599999999999999E-003    -1.65874074444066     
 -2.499999999999999E-003    -1.59869025032001     
 -2.399999999999999E-003    -1.53719403779406     
 -2.299999999999999E-003    -1.47427518027954     
 -2.199999999999999E-003    -1.40995826444784     
 -2.099999999999999E-003    -1.34426925255565     
 -1.999999999999999E-003    -1.27723552323644     
 -1.899999999999999E-003    -1.20888599951119     
 -1.799999999999999E-003    -1.13925081691214     
 -1.699999999999999E-003    -1.06836168158466     
 -1.599999999999999E-003   -0.996251565852900     
 -1.499999999999999E-003   -0.922954785392996     
 -1.399999999999999E-003   -0.848506936328435     
 -1.299999999999999E-003   -0.772945174145364     
 -1.199999999999999E-003   -0.696307657662721     
 -1.099999999999999E-003   -0.618633957382731     
 -9.999999999999989E-004   -0.539964839405494     
 -8.999999999999990E-004   -0.460342367140709     
 -7.999999999999990E-004   -0.379809727049160     
 -6.999999999999989E-004   -0.298411250109593     
 -5.999999999999990E-004   -0.216192458109113     
 -4.999999999999989E-004   -0.133199887769175     
 -3.999999999999989E-004   -4.948111641280998E-002
 -2.999999999999989E-004    3.491531155708041E-002
 -1.999999999999989E-004    0.119939919499458     
 -9.999999999999892E-005    0.205542144940531     
  1.084202172485504E-018    0.291670765751298     
  1.000000000000011E-004    0.378273617007036     
  2.000000000000011E-004    0.465297890359445     
  3.000000000000011E-004    0.552689978977061     
  4.000000000000011E-004    0.640395599761421     
  5.000000000000011E-004    0.728359861306193     
  6.000000000000011E-004    0.816527350044835     
  7.000000000000011E-004    0.904842059981670     
  8.000000000000011E-004    0.993247404079221     
  9.000000000000012E-004     1.08168662520006     
  1.000000000000001E-003     1.17010241107539     
  1.100000000000001E-003     1.25843722748183     
  1.200000000000001E-003     1.34663318506335     
  1.300000000000001E-003     1.43463233642633     
  1.400000000000001E-003     1.52237638676192     
  1.500000000000001E-003     1.60980709889460     
  1.600000000000001E-003     1.69686631939332     
  1.700000000000001E-003     1.78349575380549     
  1.800000000000001E-003     1.86963732228634     
  1.900000000000001E-003     1.95523291911431     
  2.000000000000001E-003     2.04022498718070     
  2.100000000000001E-003     2.12455604613550     
  2.200000000000001E-003     2.20816895261675     
  2.300000000000001E-003     2.29100705391327     
  2.400000000000001E-003     2.37301406288640     
  2.500000000000001E-003     2.45413441723640     
  2.600000000000001E-003     2.53431290587633     
  2.700000000000001E-003     2.61349492640283     
  2.800000000000001E-003     2.69162659460685     
  2.900000000000001E-003     2.76865505894162     
  3.000000000000001E-003     2.84452785123076     
  3.100000000000001E-003     2.91919361720550     
  3.200000000000001E-003     2.99260149701645     
  3.300000000000001E-003     3.06470229279511     
  3.400000000000001E-003     3.13544702530884     
  3.500000000000001E-003     3.20478837868935     
  3.600000000000001E-003     3.27267983888725     
  3.700000000000001E-003     3.33907638008679     
  3.800000000000001E-003     3.40393377005287     
  3.900000000000001E-003     3.46720921811640     
  4.000000000000001E-003     3.52886140232092     
  4.100000000000001E-003     3.58885018340039     
  4.200000000000001E-003     3.64713665143402     
  4.300000000000001E-003     3.70368357991822     
  4.400000000000001E-003     3.75845544730045     
  4.500000000000001E-003     3.81141743443138     
  4.600000000000002E-003     3.86253715891830     
  4.700000000000001E-003     3.91178312748259     
  4.800000000000001E-003     3.95912581442778     
  4.900000000000002E-003     4.00453695911990     
  5.000000000000001E-003     4.04799015963333     
  5.100000000000001E-003     4.08946089747482     
  5.200000000000001E-003     4.12892613463978     
  5.300000000000002E-003     4.16636440434041     
  5.400000000000001E-003     4.20175605119185     
  5.500000000000001E-003     4.23508324430337     
  5.600000000000002E-003     4.26632986441062     
  5.700000000000001E-003     4.29548169530942     
  5.800000000000001E-003     4.32252630174045     
  5.900000000000002E-003     4.34745306419209     
  6.000000000000001E-003     4.37025296957337     
  6.100000000000001E-003     4.39091882410057     
  6.200000000000002E-003     4.40944575336312     
  6.300000000000002E-003     4.42582956755322     
  6.400000000000001E-003     4.44006945708060     
  6.500000000000001E-003     4.45216510168517     
  6.600000000000002E-003     4.46211855679052     
  6.700000000000001E-003     4.46993365700338     
  6.800000000000001E-003     4.47561575380599     
  6.900000000000002E-003     4.47917212070996     
  7.000000000000001E-003     4.48061189482714     
  7.100000000000001E-003     4.47994550851993     
  7.200000000000002E-003     4.47718539365971     
  7.300000000000002E-003     4.47234534578310     
  7.400000000000001E-003     4.46544145720095     
  7.500000000000001E-003     4.45649099513212     
  7.600000000000002E-003     4.44551282678104     
  7.700000000000001E-003     4.43252743914029     
  7.800000000000001E-003     4.41755744215363     
  7.900000000000001E-003     4.40062582239176     
  8.000000000000002E-003     4.38175834353776     
  8.100000000000001E-003     4.36098145731578     
  8.200000000000001E-003     4.33832295621006     
  8.300000000000002E-003     4.31381213145380     
  8.400000000000001E-003     4.28748028992624     
  8.500000000000002E-003     4.25935877998621     
  8.600000000000002E-003     4.22948112472243     
  8.700000000000001E-003     4.19788179861272     
  8.800000000000002E-003     4.16459623080972     
  8.900000000000002E-003     4.12966148034984     
  9.000000000000001E-003     4.09311499876152     
  9.100000000000002E-003     4.05499539276761     
  9.200000000000002E-003     4.01534280087294     
  9.300000000000001E-003     3.97419739380354     
  9.400000000000002E-003     3.93160106165102     
  9.500000000000001E-003     3.88759619494176     
  9.600000000000001E-003     3.84222609077989     
  9.700000000000002E-003     3.79553465747471     
  9.800000000000001E-003     3.74756641754926     
  9.900000000000001E-003     3.69836651310136     
  1.000000000000000E-002     3.64798079011753     
  1.010000000000000E-002     3.59645563548165     
  1.020000000000000E-002     3.54383786723786     
  1.030000000000000E-002     3.49017459901452     
  1.040000000000000E-002     3.43551326452957     
  1.050000000000000E-002     3.37990182510194     
  1.060000000000000E-002     3.32338830038829     
  1.070000000000000E-002     3.26602088766662     
  1.080000000000000E-002     3.20784797277275     
  1.090000000000000E-002     3.14891820406602     
  1.100000000000000E-002     3.08927981006808     
  1.110000000000000E-002     3.02898165991397     
  1.120000000000000E-002     2.96807221276543     
  1.130000000000000E-002     2.90659975081059     
  1.140000000000000E-002     2.84461260140927     
  1.150000000000000E-002     2.78215869421724     
  1.160000000000000E-002     2.71928620829679     
  1.170000000000000E-002     2.65604246377458     
  1.180000000000000E-002     2.59247472333075     
  1.190000000000000E-002     2.52863010962470     
  1.200000000000000E-002     2.46455472322079     
  1.210000000000000E-002     2.40029485596457     
  1.220000000000000E-002     2.33589570071699     
  1.230000000000000E-002     2.27140231520425     
  1.240000000000000E-002     2.20685913405915     
  1.250000000000000E-002     2.14230973869276     
  1.260000000000000E-002     2.07779713869399     
  1.270000000000000E-002     2.01336393440439     
  1.280000000000000E-002     1.94905154542987     
  1.290000000000000E-002     1.88490092443326     
  1.300000000000000E-002     1.82095215917366     
  1.310000000000000E-002     1.75724452179743     
  1.320000000000000E-002     1.69381650245826     
  1.330000000000000E-002     1.63070576502713     
  1.340000000000000E-002     1.56794890468214     
  1.350000000000000E-002     1.50558192862577     
  1.360000000000000E-002     1.44363956245120     
  1.370000000000000E-002     1.38215592636916     
  1.380000000000000E-002     1.32116391919783     
  1.390000000000000E-002     1.26069551915298     
  1.400000000000000E-002     1.20078176692210     
  1.410000000000000E-002     1.14145261104471     
  1.420000000000000E-002     1.08273703801961     
  1.430000000000000E-002     1.02466279450608     
  1.440000000000000E-002    0.967256746852832     
  1.450000000000000E-002    0.910544591153845     
  1.460000000000000E-002    0.854550998964632     
  1.470000000000000E-002    0.799299548998518     
  1.480000000000000E-002    0.744812789416028     
  1.490000000000000E-002    0.691112085765657     
  1.500000000000000E-002    0.638217761096612     
  1.510000000000000E-002    0.586149078142258     
  1.520000000000000E-002    0.534924163223553     
  1.530000000000000E-002    0.484560191787773     
  1.540000000000000E-002    0.435073151654524     
  1.550000000000000E-002    0.386478043207877     
  1.560000000000000E-002    0.338788738459085     
  1.570000000000000E-002    0.292018098957119     
  1.580000000000000E-002    0.246177969773703     
  1.590000000000000E-002    0.201279090487861     
  1.600000000000000E-002    0.157331150803720     
  1.610000000000000E-002    0.114342869148333     
  1.620000000000000E-002    7.232193266198428E-002
  1.630000000000000E-002    3.127497582048491E-002
  1.640000000000000E-002   -8.792296570486306E-003
  1.650000000000000E-002   -4.787520158840843E-002
  1.660000000000000E-002   -8.596997162454884E-002
  1.670000000000000E-002   -0.123073753888799     
  1.680000000000000E-002   -0.159184654206162     
  1.690000000000000E-002   -0.194301661179463     
  1.700000000000000E-002   -0.228424629308919     
  1.710000000000000E-002   -0.261554268953795     
  1.720000000000000E-002   -0.293692096902688     
  1.730000000000000E-002   -0.324840400359387     
  1.740000000000000E-002   -0.355002344543806     
  1.750000000000000E-002   -0.384181787863325     
  1.760000000000000E-002   -0.412383391493245     
  1.770000000000000E-002   -0.439612481551393     
  1.780000000000000E-002   -0.465875147437974     
  1.790000000000000E-002   -0.491178143631390     
  1.800000000000000E-002   -0.515528914856208     
  1.810000000000000E-002   -0.538935481536670     
  1.820000000000000E-002   -0.561406542608956     
  1.830000000000000E-002   -0.582951374734937     
  1.840000000000000E-002   -0.603579791268767     
  1.850000000000000E-002   -0.623302186019565     
  1.860000000000000E-002   -0.642129423422167     
  1.870000000000000E-002   -0.660072900173286     