 -4.000000000000000E-002    0.000000000000000E+000
 -3.990000000000000E-002    0.000000000000000E+000
 -3.980000000000000E-002    0.000000000000000E+000
 -3.970000000000000E-002    2.252504877502258E-016
 -3.960000000000000E-002    1.090680466527904E-015
 -3.950000000000000E-002    2.042366371072408E-015
 -3.940000000000000E-002   -1.686140429569755E-015
 -3.930000000000000E-002   -2.506434037428465E-014
 -3.920000000000000E-002   -1.018919606341424E-013
 -3.910000000000000E-002   -2.947302272121753E-013
 -3.900000000000000E-002   -7.032637437870204E-013
 -3.890000000000000E-002   -1.466646285960341E-012
 -3.880000000000000E-002   -2.754177814175922E-012
 -3.870000000000000E-002   -4.738338319854798E-012
 -3.860000000000000E-002   -7.545282698557416E-012
 -3.850000000000000E-002   -1.118076052281588E-011
 -3.840000000000000E-002   -1.543424374111529E-011
 -3.830000000000000E-002   -1.977055857884629E-011
 -3.820000000000000E-002   -2.322586643231166E-011
 -3.810000000000000E-002   -2.433205546767767E-011
 -3.800000000000000E-002   -2.109914984701083E-011
 -3.790000000000000E-002   -1.108707129018378E-011
 -3.780000000000000E-002    8.405385322912027E-012
 -3.770000000000000E-002    4.001657684289993E-011
 -3.760000000000000E-002    8.586218978996196E-011
 -3.750000000000000E-002    1.469616930111511E-010
 -3.740000000000000E-002    2.225997558572274E-010
 -3.730000000000000E-002    3.096985031918063E-010
 -3.720000000000000E-002    4.022990805408635E-010
 -3.710000000000000E-002    4.912646097916532E-010
 -3.700000000000000E-002    5.643164834870998E-010
 -3.690000000000000E-002    6.064985712510962E-010
 -3.680000000000000E-002    6.011276720264920E-010
 -3.670000000000000E-002    5.312356843802471E-010
 -3.660000000000000E-002    3.814423320283376E-010
 -3.650000000000000E-002    1.401252818537677E-010
 -3.640000000000000E-002   -1.983147961483457E-010
 -3.630000000000000E-002   -6.313497889587921E-010
 -3.620000000000000E-002   -1.146667593749956E-009
 -3.610000000000000E-002   -1.721246503807959E-009
 -3.600000000000000E-002   -2.321402858054556E-009
 -3.590000000000000E-002   -2.903975155233516E-009
 -3.580000000000000E-002   -3.418694702385595E-009
 -3.570000000000000E-002   -3.811658369935834E-009
 -3.560000000000000E-002   -4.029675606108287E-009
 -3.550000000000000E-002   -4.025128904526982E-009
 -3.540000000000000E-002   -3.760885854265796E-009
 -3.530000000000000E-002   -3.214742181619120E-009
 -3.520000000000000E-002   -2.382876612603156E-009
 -3.510000000000000E-002   -1.281865188253314E-009
 -3.500000000000000E-002    5.107141789115238E-011
 -3.490000000000000E-002    1.559735949405523E-009
 -3.480000000000000E-002    3.172476901634016E-009
 -3.470000000000000E-002    4.807285828612074E-009
 -3.460000000000000E-002    6.377996844645001E-009
 -3.450000000000000E-002    7.800960467942967E-009
 -3.440000000000000E-002    9.001488728568728E-009
 -3.430000000000000E-002    9.919358957256009E-009
 -3.420000000000000E-002    1.051277075728044E-008
 -3.410000000000000E-002    1.076029843786395E-008
 -3.400000000000000E-002    1.066063257101117E-008
 -3.390000000000000E-002    1.023016107982121E-008
 -3.380000000000000E-002    9.498709894766251E-009
 -3.370000000000000E-002    8.504008719468950E-009
 -3.360000000000000E-002    7.285613130887342E-009
 -3.350000000000000E-002    5.879103464620475E-009
 -3.340000000000000E-002    4.311365465976159E-009
 -3.330000000000000E-002    2.597635218441825E-009
 -3.320000000000000E-002    7.407828135488467E-010
 -3.310000000000000E-002   -1.266968406825085E-009
 -3.300000000000000E-002   -3.440000871989644E-009
 -3.290000000000000E-002   -5.793358155347403E-009
 -3.280000000000000E-002   -8.335582715035379E-009
 -3.270000000000000E-002   -1.106120340315578E-008
 -3.260000000000000E-002   -1.394384060974554E-008
 -3.250000000000000E-002   -1.693085857360240E-008
 -3.240000000000000E-002   -1.994038845856260E-008
 -3.230000000000000E-002   -2.286129107091253E-008
 -3.220000000000000E-002   -2.555636226326843E-008
 -3.210000000000000E-002   -2.786872786823857E-008
 -3.200000000000000E-002   -2.963105907891569E-008
 -3.190000000000000E-002   -3.067693025762657E-008
 -3.180000000000000E-002   -3.085340351831492E-008
 -3.170000000000000E-002   -3.003379472854115E-008
 -3.160000000000000E-002   -2.812948444436733E-008
 -3.150000000000000E-002   -2.509972341258617E-008
 -3.140000000000000E-002   -2.095849294788900E-008
 -3.130000000000000E-002   -1.577771528045411E-008
 -3.120000000000000E-002   -9.686365791730506E-009
 -3.110000000000000E-002   -2.865376441586172E-009
 -3.100000000000000E-002    4.461491877794771E-009
 -3.090000000000000E-002    1.204025901659127E-008
 -3.080000000000000E-002    1.960204024970734E-008
 -3.070000000000000E-002    2.687995990477933E-008
 -3.060000000000000E-002    3.362645101751558E-008
 -3.050000000000000E-002    3.962953087127776E-008
 -3.040000000000000E-002    4.472667097196492E-008
 -3.030000000000000E-002    4.881493153450084E-008
 -3.020000000000000E-002    5.185619354075862E-008
 -3.010000000000000E-002    5.387664677895038E-008
 -3.000000000000000E-002    5.496009738938891E-008
 -2.990000000000000E-002    5.523512506270091E-008
 -2.980000000000000E-002    5.485675485363877E-008
 -2.970000000000000E-002    5.398383432948127E-008
 -2.960000000000000E-002    5.275395653879675E-008
 -2.950000000000000E-002    5.125818283533483E-008
 -2.940000000000000E-002    4.951821801937280E-008
 -2.930000000000000E-002    4.746874478293494E-008
 -2.920000000000000E-002    4.494751940809244E-008
 -2.910000000000000E-002    4.169537707841472E-008
 -2.900000000000000E-002    3.736756505601728E-008
 -2.890000000000000E-002    3.155686745463045E-008
 -2.880000000000000E-002    2.382783252569592E-008
 -2.870000000000000E-002    1.376019662254188E-008
 -2.860000000000000E-002    9.983916660734447E-010
 -2.850000000000000E-002   -1.469685463537381E-008
 -2.840000000000000E-002   -3.339960592097276E-008
 -2.830000000000000E-002   -5.497737439898902E-008
 -2.820000000000000E-002   -7.906212377018209E-008
 -2.810000000000000E-002   -1.050373599686166E-007
 -2.800000000000000E-002   -1.320440425298444E-007
 -2.790000000000000E-002   -1.590062748001898E-007
 -2.780000000000000E-002   -1.846757506229184E-007
 -2.770000000000000E-002   -2.076921103638760E-007
 -2.760000000000000E-002   -2.266546866166069E-007
 -2.750000000000000E-002   -2.401992344393237E-007
 -2.740000000000000E-002   -2.470729994555181E-007
 -2.730000000000000E-002   -2.462008353807928E-007
 -2.720000000000000E-002   -2.367357674709406E-007
 -2.710000000000000E-002   -2.180886501727282E-007
 -2.700000000000000E-002   -1.899334820340987E-007
 -2.690000000000000E-002   -1.521873996456961E-007
 -2.680000000000000E-002   -1.049667252880267E-007
 -2.670000000000000E-002   -4.852299062541216E-008
 -2.660000000000000E-002    1.683445768821127E-008
 -2.650000000000000E-002    9.082160577209889E-008
 -2.640000000000000E-002    1.732597590683256E-007
 -2.630000000000000E-002    2.641432559193500E-007
 -2.620000000000000E-002    3.636869704238954E-007
 -2.610000000000000E-002    4.723474321542764E-007
 -2.600000000000000E-002    5.908129458602619E-007
 -2.590000000000000E-002    7.199622353785627E-007
 -2.580000000000000E-002    8.607932174705905E-007
 -2.570000000000000E-002    1.014327456806055E-006
 -2.560000000000000E-002    1.181496794949884E-006
 -2.550000000000000E-002    1.363023073157320E-006
 -2.540000000000000E-002    1.559300884171948E-006
 -2.530000000000000E-002    1.770294093405784E-006
 -2.520000000000000E-002    1.995456923880619E-006
 -2.510000000000000E-002    2.233688214889343E-006
 -2.500000000000000E-002    2.483323156124198E-006
 -2.490000000000000E-002    2.742168597528292E-006
 -2.480000000000000E-002    3.007578155022649E-006
 -2.470000000000000E-002    3.276566082659362E-006
 -2.460000000000000E-002    3.545951221363537E-006
 -2.450000000000000E-002    3.812522938553040E-006
 -2.440000000000000E-002    4.073217467574684E-006
 -2.430000000000000E-002    4.325289200914003E-006
 -2.420000000000000E-002    4.566469611555907E-006
 -2.410000000000000E-002    4.795096660895045E-006
 -2.400000000000000E-002    5.010208889953476E-006
 -2.390000000000000E-002    5.211591255986524E-006
 -2.380000000000000E-002    5.399774987113718E-006
 -2.370000000000000E-002    5.575983041558288E-006
 -2.360000000000000E-002    5.742029374443120E-006
 -2.350000000000000E-002    5.900175737162960E-006
 -2.340000000000000E-002    6.052956668681400E-006
 -2.330000000000000E-002    6.202981848562488E-006
 -2.320000000000000E-002    6.352735518034374E-006
 -2.310000000000000E-002    6.504378767066121E-006
 -2.300000000000000E-002    6.659578927826343E-006
 -2.290000000000000E-002    6.819372255463187E-006
 -2.280000000000000E-002    6.984071929751890E-006
 -2.270000000000000E-002    7.153227462460618E-006
 -2.260000000000000E-002    7.325645087118812E-006
 -2.250000000000000E-002    7.499457622797724E-006
 -2.240000000000000E-002    7.672247623103636E-006
 -2.230000000000000E-002    7.841206335771340E-006
 -2.220000000000000E-002    8.003323053353743E-006
 -2.210000000000000E-002    8.155584003686372E-006
 -2.200000000000000E-002    8.295169335037135E-006
 -2.190000000000000E-002    8.419625827802579E-006
 -2.180000000000000E-002    8.527011024041421E-006
 -2.170000000000000E-002    8.615982006922654E-006
 -2.160000000000000E-002    8.685840802425148E-006
 -2.150000000000000E-002    8.736518388051761E-006
 -2.140000000000000E-002    8.768499499330667E-006
 -2.130000000000000E-002    8.782706150450700E-006
 -2.120000000000000E-002    8.780339577421662E-006
 -2.110000000000000E-002    8.762692606444673E-006
 -2.100000000000000E-002    8.730957129808249E-006
 -2.090000000000000E-002    8.686029811986167E-006
 -2.080000000000000E-002    8.628344407572419E-006
 -2.070000000000000E-002    8.557727842013875E-006
 -2.060000000000000E-002    8.473296294441539E-006
 -2.050000000000000E-002    8.373407080864400E-006
 -2.040000000000000E-002    8.255646211926763E-006
 -2.030000000000000E-002    8.116861412050970E-006
 -2.020000000000000E-002    7.953245902802533E-006
 -2.010000000000000E-002    7.760436082702558E-006
 -2.000000000000000E-002    7.533639986339660E-006
 -1.990000000000000E-002    7.267777105370864E-006
 -1.980000000000000E-002    6.957606202815449E-006
 -1.970000000000000E-002    6.597845219059228E-006
 -1.960000000000000E-002    6.183274021540366E-006
 -1.950000000000000E-002    5.708800169879004E-006
 -1.940000000000000E-002    5.169512995400920E-006
 -1.930000000000000E-002    4.560670352866986E-006
 -1.920000000000000E-002    3.877699660186673E-006
 -1.910000000000000E-002    3.116107438388410E-006
 -1.900000000000000E-002    2.271410071454600E-006
 -1.890000000000000E-002    1.339006409073438E-006
 -1.880000000000000E-002    3.140520553926284E-007
 -1.870000000000000E-002   -8.087014264023261E-007
 -1.860000000000000E-002   -2.035052752565197E-006
 -1.850000000000000E-002   -3.371524340304376E-006
 -1.840000000000000E-002   -4.825493289284463E-006
 -1.830000000000000E-002   -6.405354886451079E-006
 -1.820000000000000E-002   -8.120604383605490E-006
 -1.810000000000000E-002   -9.981961867760366E-006
 -1.800000000000000E-002   -1.200140166039620E-005
 -1.790000000000000E-002   -1.419218945753848E-005
 -1.780000000000000E-002   -1.656887598656112E-005
 -1.770000000000000E-002   -1.914724002929768E-005
 -1.760000000000000E-002   -2.194421977714318E-005
 -1.750000000000000E-002   -2.497783231095701E-005
 -1.740000000000000E-002   -2.826705167036534E-005
 -1.730000000000000E-002   -3.183174434765042E-005
 -1.720000000000000E-002   -3.569255063909421E-005
 -1.710000000000000E-002   -3.987083976541187E-005
 -1.700000000000000E-002   -4.438865204326824E-005
 -1.690000000000000E-002   -4.926875369113650E-005
 -1.680000000000000E-002   -5.453464690412090E-005
 -1.670000000000000E-002   -6.021068689019523E-005
 -1.660000000000000E-002   -6.632221878836626E-005
 -1.650000000000000E-002   -7.289568753927474E-005
 -1.640000000000000E-002   -7.995887963856673E-005
 -1.630000000000000E-002   -8.754107090768650E-005
 -1.620000000000000E-002   -9.567323356923386E-005
 -1.610000000000000E-002   -1.043881821240785E-004
 -1.600000000000000E-002   -1.137207377187561E-004
 -1.590000000000000E-002   -1.237078949960219E-004
 -1.580000000000000E-002   -1.343888988177020E-004
 -1.570000000000000E-002   -1.458052768619186E-004
 -1.560000000000000E-002   -1.580009902380791E-004
 -1.550000000000000E-002   -1.710225048396033E-004
 -1.540000000000000E-002   -1.849187780673140E-004
 -1.530000000000000E-002   -1.997414752873194E-004
 -1.520000000000000E-002   -2.155449155427231E-004
 -1.510000000000000E-002   -2.323863664502860E-004
 -1.500000000000000E-002   -2.503260957612269E-004
 -1.490000000000000E-002   -2.694274718161438E-004
 -1.480000000000000E-002   -2.897572744834876E-004
 -1.470000000000000E-002   -3.113858705493019E-004
 -1.460000000000000E-002   -3.343872577268532E-004
 -1.450000000000000E-002   -3.588393025329580E-004
 -1.440000000000000E-002   -3.848239030668973E-004
 -1.430000000000000E-002   -4.124270518006293E-004
 -1.420000000000000E-002   -4.417390306590292E-004
 -1.410000000000000E-002   -4.728542710828725E-004
 -1.400000000000000E-002   -5.058715817337117E-004
 -1.390000000000000E-002   -5.408942949861606E-004
 -1.380000000000000E-002   -5.780299470719699E-004
 -1.370000000000000E-002   -6.173907707081259E-004
 -1.360000000000000E-002   -6.590936998335401E-004
 -1.350000000000000E-002   -7.032603857793270E-004
 -1.340000000000000E-002   -7.500176839230774E-004
 -1.330000000000000E-002   -7.994975443948545E-004
 -1.320000000000000E-002   -8.518375730176516E-004
 -1.310000000000000E-002   -9.071811535251889E-004
 -1.300000000000000E-002   -9.656777743451831E-004
 -1.290000000000000E-002   -1.027483443249284E-003
 -1.280000000000000E-002   -1.092761091371277E-003
 -1.270000000000000E-002   -1.161680445244477E-003
 -1.260000000000000E-002   -1.234418574604942E-003
 -1.250000000000000E-002   -1.311160384684589E-003
 -1.240000000000000E-002   -1.392098499065247E-003
 -1.230000000000000E-002   -1.477433519487856E-003
 -1.220000000000000E-002   -1.567374831362311E-003
 -1.210000000000000E-002   -1.662140048582728E-003
 -1.200000000000000E-002   -1.761956057359549E-003
 -1.190000000000000E-002   -1.867058598863371E-003
 -1.180000000000000E-002   -1.977693389867777E-003
 -1.170000000000000E-002   -2.094115669856412E-003
 -1.160000000000000E-002   -2.216591135950649E-003
 -1.150000000000000E-002   -2.345395913846199E-003
 -1.140000000000000E-002   -2.480816535334232E-003
 -1.130000000000000E-002   -2.623151111065304E-003
 -1.120000000000000E-002   -2.772708377103160E-003
 -1.110000000000000E-002   -2.929809002993255E-003
 -1.100000000000000E-002   -3.094784404427134E-003
 -1.090000000000000E-002   -3.267977828628040E-003
 -1.080000000000000E-002   -3.449744176301364E-003
 -1.070000000000000E-002   -3.640449130242145E-003
 -1.060000000000000E-002   -3.840470881982815E-003
 -1.050000000000000E-002   -4.050199574474798E-003
 -1.040000000000000E-002   -4.270036459501188E-003
 -1.030000000000000E-002   -4.500395880851418E-003
 -1.020000000000000E-002   -4.741704925460350E-003
 -1.010000000000000E-002   -4.994404187566761E-003
 -1.000000000000000E-002   -5.258948487585085E-003
 -9.899999999999999E-003   -5.535806945772644E-003
 -9.800000000000000E-003   -5.825463685153249E-003
 -9.699999999999999E-003   -6.128419191896127E-003
 -9.599999999999999E-003   -6.445190980891553E-003
 -9.500000000000000E-003   -6.776312879052672E-003
 -9.399999999999999E-003   -7.122336006222400E-003
 -9.299999999999999E-003   -7.483829050042488E-003
 -9.200000000000000E-003   -7.861378545894370E-003
 -9.099999999999999E-003   -8.255588878771291E-003
 -8.999999999999999E-003   -8.667081816938326E-003
 -8.900000000000000E-003   -9.096496515440609E-003
 -8.799999999999999E-003   -9.544489392884235E-003
 -8.699999999999999E-003   -1.001173360645420E-002
 -8.600000000000000E-003   -1.049891981612713E-002
 -8.499999999999999E-003   -1.100675449816222E-002
 -8.399999999999999E-003   -1.153596318815311E-002
 -8.300000000000000E-003   -1.208728733355321E-002
 -8.199999999999999E-003   -1.266148500167111E-002
 -8.100000000000000E-003   -1.325933396448285E-002
 -8.000000000000000E-003   -1.388162943761811E-002
 -7.899999999999999E-003   -1.452918551621442E-002
 -7.800000000000000E-003   -1.520283436539454E-002
 -7.699999999999999E-003   -1.590342921162361E-002
 -7.599999999999999E-003   -1.663184246168439E-002
 -7.499999999999999E-003   -1.738896616326505E-002
 -7.399999999999999E-003   -1.817571214808898E-002
 -7.299999999999999E-003   -1.899301200901365E-002
 -7.199999999999999E-003   -1.984181682507501E-002
 -7.100000000000000E-003   -2.072309747009074E-002
 -6.999999999999999E-003   -2.163784471151564E-002
 -6.899999999999999E-003   -2.258706604231032E-002
 -6.800000000000000E-003   -2.357179157909768E-002
 -6.699999999999999E-003   -2.459306461776302E-002
 -6.599999999999999E-003   -2.565195142291759E-002
 -6.499999999999999E-003   -2.674952793028647E-002
 -6.399999999999999E-003   -2.788689613264441E-002
 -6.299999999999999E-003   -2.906517095213168E-002
 -6.199999999999999E-003   -3.028548324628590E-002
 -6.100000000000000E-003   -3.154898013969904E-002
 -5.999999999999999E-003   -3.285682683657644E-002
 -5.899999999999999E-003   -3.421020134718157E-002
 -5.800000000000000E-003   -3.561029710978177E-002
 -5.699999999999999E-003   -3.705832678285990E-002
 -5.599999999999999E-003   -3.855551049546967E-002
 -5.499999999999999E-003   -4.010308465940218E-002
 -5.399999999999999E-003   -4.170230118915472E-002
 -5.299999999999999E-003   -4.335442035867681E-002
 -5.199999999999999E-003   -4.506071565202018E-002
 -5.099999999999999E-003   -4.682247244486279E-002
 -4.999999999999999E-003   -4.864097857001573E-002
 -4.899999999999999E-003   -5.051753649741821E-002
 -4.799999999999999E-003   -5.245345078104596E-002
 -4.699999999999999E-003   -5.445003879018006E-002
 -4.599999999999999E-003   -5.650862423808250E-002
 -4.499999999999999E-003   -5.863052573900697E-002
 -4.399999999999999E-003   -6.081707171698968E-002
 -4.299999999999999E-003   -6.306959104015225E-002
 -4.199999999999999E-003   -6.538941334056714E-002
 -4.099999999999999E-003   -6.777786542401129E-002
 -3.999999999999999E-003   -7.023626930097679E-002
 -3.899999999999999E-003   -7.276595089465658E-002
 -3.799999999999999E-003   -7.536821910536401E-002
 -3.699999999999999E-003   -7.804438819546540E-002
 -3.599999999999999E-003   -8.079575671780539E-002
 -3.499999999999999E-003   -8.362362212577866E-002
 -3.399999999999999E-003   -8.652925778019545E-002
 -3.299999999999999E-003   -8.951393893947596E-002
 -3.199999999999999E-003   -9.257892044486847E-002
 -3.099999999999999E-003   -9.572544040549247E-002
 -2.999999999999999E-003   -9.895470726851074E-002
 -2.899999999999999E-003   -0.102267921789072     
 -2.799999999999999E-003   -0.105666270368541     
 -2.699999999999999E-003   -0.109150895617821     
 -2.599999999999999E-003   -0.112722924261347     
 -2.499999999999999E-003   -0.116383441242423     
 -2.399999999999999E-003   -0.120133503357553     
 -2.299999999999999E-003   -0.123974139361354     
 -2.199999999999999E-003   -0.127906338370551     
 -2.099999999999999E-003   -0.131931044449038     
 -1.999999999999999E-003   -0.136049161618401     
 -1.899999999999999E-003   -0.140261549921820     
 -1.799999999999999E-003   -0.144569036127743     
 -1.699999999999999E-003   -0.148972386946271     
 -1.599999999999999E-003   -0.153472310307308     
 -1.499999999999999E-003   -0.158069481856052     
 -1.399999999999999E-003   -0.162764503706745     
 -1.299999999999999E-003   -0.167557924413058     
 -1.199999999999999E-003   -0.172450240918374     
 -1.099999999999999E-003   -0.177441863794036     
 -9.999999999999989E-004   -0.182533158079306     
 -8.999999999999990E-004   -0.187724409468786     
 -7.999999999999990E-004   -0.193015839938693     
 -6.999999999999989E-004   -0.198407567983278     
 -5.999999999999990E-004   -0.203899663323146     
 -4.999999999999989E-004   -0.209492097867419     
 -3.999999999999989E-004   -0.215184774928449     
 -2.999999999999989E-004   -0.220977498038651     
 -1.999999999999989E-004   -0.226869970142153     
 -9.999999999999892E-005   -0.232861822421111     
  1.084202172485504E-018   -0.238952590058350     
  1.000000000000011E-004   -0.245141699078641     
  2.000000000000011E-004   -0.251428454281046     
  3.000000000000011E-004   -0.257812106449870     
  4.000000000000011E-004   -0.264291772280534     
  5.000000000000011E-004   -0.270866448391612     
  6.000000000000011E-004   -0.277535047682270     
  7.000000000000011E-004   -0.284296363164057     
  8.000000000000011E-004   -0.291149044059585     
  9.000000000000012E-004   -0.298091672862661     
  1.000000000000001E-003   -0.305122654780730     
  1.100000000000001E-003   -0.312240313978605     
  1.200000000000001E-003   -0.319442825319621     
  1.300000000000001E-003   -0.326728240199058     
  1.400000000000001E-003   -0.334094487482403     
  1.500000000000001E-003   -0.341539358878136     
  1.600000000000001E-003   -0.349060500088506     
  1.700000000000001E-003   -0.356655438140558     
  1.800000000000001E-003   -0.364321569516231     
  1.900000000000001E-003   -0.372056122507162     
  2.000000000000001E-003   -0.379856198442734     
  2.100000000000001E-003   -0.387718782254597     
  2.200000000000001E-003   -0.395640684483609     
  2.300000000000001E-003   -0.403618578635190     
  2.400000000000001E-003   -0.411649020702580     
  2.500000000000001E-003   -0.419728416591236     
  2.600000000000001E-003   -0.427852972760384     
  2.700000000000001E-003   -0.436018817709879     
  2.800000000000001E-003   -0.444221873826101     
  2.900000000000001E-003   -0.452457938723881     
  3.000000000000001E-003   -0.460722718361354     
  3.100000000000001E-003   -0.469011692657996     
  3.200000000000001E-003   -0.477320253320882     
  3.300000000000001E-003   -0.485643572760893     
  3.400000000000001E-003   -0.493976728132186     
  3.500000000000001E-003   -0.502314675012920     
  3.600000000000001E-003   -0.510652164589611     
  3.700000000000001E-003   -0.518983850401994     
  3.800000000000001E-003   -0.527304267896444     
  3.900000000000001E-003   -0.535607732889442     
  4.000000000000001E-003   -0.543888463291743     
  4.100000000000001E-003   -0.552140551749027     
  4.200000000000001E-003   -0.560357981844891     
  4.300000000000001E-003   -0.568534541089562     
  4.400000000000001E-003   -0.576663977642005     
  4.500000000000001E-003   -0.584739836546275     
  4.600000000000002E-003   -0.592755539280234     
  4.700000000000001E-003   -0.600704486890690     
  4.800000000000001E-003   -0.608579874403368     
  4.900000000000002E-003   -0.616374753765536     
  5.000000000000001E-003   -0.624082176818200     
  5.100000000000001E-003   -0.631695049631019     
  5.200000000000001E-003   -0.639206181730799     
  5.300000000000002E-003   -0.646608293883317     
  5.400000000000001E-003   -0.653894015838946     
  5.500000000000001E-003   -0.661055842252152     
  5.600000000000002E-003   -0.668086298328918     
  5.700000000000001E-003   -0.674977748844560     
  5.800000000000001E-003   -0.681722499432492     
  5.900000000000002E-003   -0.688312835202658     
  6.000000000000001E-003   -0.694740960932030     
  6.100000000000001E-003   -0.700999027415331     
  6.200000000000002E-003   -0.707079203930410     
  6.300000000000002E-003   -0.712973531225999     
  6.400000000000001E-003   -0.718674056461710     
  6.500000000000001E-003   -0.724172877718211     
  6.600000000000002E-003   -0.729461948598918     
  6.700000000000001E-003   -0.734533375900501     
  6.800000000000001E-003   -0.739379145245061     
  6.900000000000002E-003   -0.743991309732128     
  7.000000000000001E-003   -0.748361965428006     
  7.100000000000001E-003   -0.752483156827810     
  7.200000000000002E-003   -0.756346999635706     
  7.300000000000002E-003   -0.759945626887292     
  7.400000000000001E-003   -0.763271324450960     
  7.500000000000001E-003   -0.766316316147834     
  7.600000000000002E-003   -0.769072960342723     
  7.700000000000001E-003   -0.771533699018232     
  7.800000000000001E-003   -0.773691040052864     
  7.900000000000001E-003   -0.775537563571076     
  8.000000000000002E-003   -0.777066011533594     
  8.100000000000001E-003   -0.778269205141324     
  8.200000000000001E-003   -0.779140098696245     
  8.300000000000002E-003   -0.779671798095644     
  8.400000000000001E-003   -0.779857508613356     
  8.500000000000002E-003   -0.779690670506000     
  8.600000000000002E-003   -0.779164782076981     
  8.700000000000001E-003   -0.778273622286009     
  8.800000000000002E-003   -0.777011028024286     
  8.900000000000002E-003   -0.775371092097235     
  9.000000000000001E-003   -0.773348140009732     
  9.100000000000002E-003   -0.770936661389792     
  9.200000000000002E-003   -0.768131321856286     
  9.300000000000001E-003   -0.764927077093792     
  9.400000000000002E-003   -0.761319076259260     
  9.500000000000001E-003   -0.757302703289008     
  9.600000000000001E-003   -0.752873698725234     
  9.700000000000002E-003   -0.748027921388993     
  9.800000000000001E-003   -0.742761581369759     
  9.900000000000001E-003   -0.737071101674167     
  1.000000000000000E-002   -0.730953259608424     
  1.010000000000000E-002   -0.724405107018137     
  1.020000000000000E-002   -0.717424017629723     
  1.030000000000000E-002   -0.710007594787665     
  1.040000000000000E-002   -0.702153786592793     
  1.050000000000000E-002   -0.693860944278587     
  1.060000000000000E-002   -0.685127633382550     
  1.070000000000000E-002   -0.675952826504723     
  1.080000000000000E-002   -0.666335768483306     
  1.090000000000000E-002   -0.656276137990062     
  1.100000000000000E-002   -0.645773843807044     
  1.110000000000000E-002   -0.634829256486397     
  1.120000000000000E-002   -0.623443014288986     
  1.130000000000000E-002   -0.611616241841730     
  1.140000000000000E-002   -0.599350278506746     
  1.150000000000000E-002   -0.586646938526039     
  1.160000000000000E-002   -0.573508386250343     
  1.170000000000000E-002   -0.559937178319516     
  1.180000000000000E-002   -0.545936242389140     
  1.190000000000000E-002   -0.531508860285068     
  1.200000000000000E-002   -0.516658751228325     
  1.210000000000000E-002   -0.501389973734995     
  1.220000000000000E-002   -0.485706987594904     
  1.230000000000000E-002   -0.469614672844688     
  1.240000000000000E-002   -0.453118223829391     
  1.250000000000000E-002   -0.436223326619975     
  1.260000000000000E-002   -0.418935952336647     
  1.270000000000000E-002   -0.401262484082654     
  1.280000000000000E-002   -0.383209725434719     
  1.290000000000000E-002   -0.364784819109326     
  1.300000000000000E-002   -0.345995276797045     
  1.310000000000000E-002   -0.326849026801076     
  1.320000000000000E-002   -0.307354345813934     
  1.330000000000000E-002   -0.287519862653593     
  1.340000000000000E-002   -0.267354589751350     
  1.350000000000000E-002   -0.246867893080805     
  1.360000000000000E-002   -0.226069482981934     
  1.370000000000000E-002   -0.204969414698292     
  1.380000000000000E-002   -0.183578084963095     
  1.390000000000000E-002   -0.161906217362717     
  1.400000000000000E-002   -0.139964877299493     
  1.410000000000000E-002   -0.117765432893122     
  1.420000000000000E-002   -9.531957023791963E-002
  1.430000000000000E-002   -7.263929169232233E-002
  1.440000000000000E-002   -4.973686469194441E-002
  1.450000000000000E-002   -2.662486950902477E-002
  1.460000000000000E-002   -3.316129222151197E-003
  1.470000000000000E-002    2.017625755909475E-002
  1.480000000000000E-002    4.383891433870925E-002
  1.490000000000000E-002    6.765825349271794E-002
  1.500000000000000E-002    9.162045438867589E-002
  1.510000000000000E-002    0.115711475664442     
  1.520000000000000E-002    0.139917059656725     
  1.530000000000000E-002    0.164222771593996     
  1.540000000000000E-002    0.188613954946118     
  1.550000000000000E-002    0.213075851214262     
  1.560000000000000E-002    0.237593488789733     
  1.570000000000000E-002    0.262151755456068     
  1.580000000000000E-002    0.286735418885689     
  1.590000000000000E-002    0.311329191506056     
  1.600000000000000E-002    0.335917557298304     
  1.610000000000000E-002    0.360484986049467     
  1.620000000000000E-002    0.385015823655729     
  1.630000000000000E-002    0.409494455753528     
  1.640000000000000E-002    0.433905112379974     
  1.650000000000000E-002    0.458232029452041     
  1.660000000000000E-002    0.482459473463544     
  1.670000000000000E-002    0.506571648576284     
  1.680000000000000E-002    0.530552850494624     
  1.690000000000000E-002    0.554387329081006     
  1.700000000000000E-002    0.578059419864547     
  1.710000000000000E-002    0.601553506434888     
  1.720000000000000E-002    0.624854045582124     
  1.730000000000000E-002    0.647945620002099     
  1.740000000000000E-002    0.670812952193393     
  1.750000000000000E-002    0.693440715258359     
  1.760000000000000E-002    0.715813975734171     
  1.770000000000000E-002    0.737917703269146     
  1.780000000000000E-002    0.759737181552256     
  1.790000000000000E-002    0.781257872065261     
  1.800000000000000E-002    0.802465326355468     
  1.810000000000000E-002    0.823345301841595     
  1.820000000000000E-002    0.843883929374751     
  1.830000000000000E-002    0.864067517805096     
  1.840000000000000E-002    0.883882495713659     
  1.850000000000000E-002    0.903315758911312     
  1.860000000000000E-002    0.922354354409536     
  1.870000000000000E-002    0.940985740603064     