 -4.000000000000000E-002    0.000000000000000E+000
 -3.990000000000000E-002    0.000000000000000E+000
 -3.980000000000000E-002    0.000000000000000E+000
 -3.970000000000000E-002    0.000000000000000E+000
 -3.960000000000000E-002    0.000000000000000E+000
 -3.950000000000000E-002    0.000000000000000E+000
 -3.940000000000000E-002    0.000000000000000E+000
 -3.930000000000000E-002    0.000000000000000E+000
 -3.920000000000000E-002    0.000000000000000E+000
 -3.910000000000000E-002    0.000000000000000E+000
 -3.900000000000000E-002    0.000000000000000E+000
 -3.890000000000000E-002    0.000000000000000E+000
 -3.880000000000000E-002    0.000000000000000E+000
 -3.870000000000000E-002    0.000000000000000E+000
 -3.860000000000000E-002    0.000000000000000E+000
 -3.850000000000000E-002    0.000000000000000E+000
 -3.840000000000000E-002    0.000000000000000E+000
 -3.830000000000000E-002    0.000000000000000E+000
 -3.820000000000000E-002    0.000000000000000E+000
 -3.810000000000000E-002    0.000000000000000E+000
 -3.800000000000000E-002    1.298661364475642E-047
 -3.790000000000000E-002    9.615161259587066E-047
 -3.780000000000000E-002    3.970081400376575E-046
 -3.770000000000000E-002    1.770657500832668E-045
 -3.760000000000000E-002    6.724535414402963E-045
 -3.750000000000000E-002    2.472763351939887E-044
 -3.740000000000000E-002    7.940395399567817E-044
 -3.730000000000000E-002    2.221784376466146E-043
 -3.720000000000000E-002    5.488677428436533E-043
 -3.710000000000000E-002    1.156111958826555E-042
 -3.700000000000000E-002    1.877355878992017E-042
 -3.690000000000000E-002    1.316789274591614E-042
 -3.680000000000000E-002   -5.928660168363458E-042
 -3.670000000000000E-002   -3.616596309540932E-041
 -3.660000000000000E-002   -1.317060447039716E-040
 -3.650000000000000E-002   -3.902263511700783E-040
 -3.640000000000000E-002   -1.014656001394733E-039
 -3.630000000000000E-002   -2.383203340851792E-039
 -3.620000000000000E-002   -5.114839730490357E-039
 -3.610000000000000E-002   -1.004363338538037E-038
 -3.600000000000000E-002   -1.788391528265469E-038
 -3.590000000000000E-002   -2.812479926079419E-038
 -3.580000000000000E-002   -3.629310176077951E-038
 -3.570000000000000E-002   -2.815339658290971E-038
 -3.560000000000000E-002    3.125508362130267E-038
 -3.550000000000000E-002    2.163478523968641E-037
 -3.540000000000000E-002    6.698219806909366E-037
 -3.530000000000000E-002    1.641720966282920E-036
 -3.520000000000000E-002    3.532908261571700E-036
 -3.510000000000000E-002    6.924733124345517E-036
 -3.500000000000000E-002    1.255472156926215E-035
 -3.490000000000000E-002    2.116377233815036E-035
 -3.480000000000000E-002    3.309285820919983E-035
 -3.470000000000000E-002    4.745124173697931E-035
 -3.460000000000000E-002    6.062790970637175E-035
 -3.450000000000000E-002    6.390358163816016E-035
 -3.440000000000000E-002    3.999454432724057E-035
 -3.430000000000000E-002   -4.140062565673654E-035
 -3.420000000000000E-002   -2.284696987582181E-034
 -3.410000000000000E-002   -5.910932231238535E-034
 -3.400000000000000E-002   -1.220728828208682E-033
 -3.390000000000000E-002   -2.221622061729795E-033
 -3.380000000000000E-002   -3.686321948023311E-033
 -3.370000000000000E-002   -5.646244016495161E-033
 -3.360000000000000E-002   -7.986632442648012E-033
 -3.350000000000000E-002   -1.031609767143673E-032
 -3.340000000000000E-002   -1.178588944943529E-032
 -3.330000000000000E-002   -1.086575815073834E-032
 -3.320000000000000E-002   -5.104321189329876E-033
 -3.310000000000000E-002    9.065150875937076E-033
 -3.300000000000000E-002    3.636703311486260E-032
 -3.290000000000000E-002    8.241078108829531E-032
 -3.280000000000000E-002    1.528807094264320E-031
 -3.270000000000000E-002    2.519162862154001E-031
 -3.260000000000000E-002    3.793959237379296E-031
 -3.250000000000000E-002    5.268905167405079E-031
 -3.240000000000000E-002    6.722167082892527E-031
 -3.230000000000000E-002    7.728413410223008E-031
 -3.220000000000000E-002    7.589129699046137E-031
 -3.210000000000000E-002    5.274435090549150E-031
 -3.200000000000000E-002   -5.987655555515994E-032
 -3.190000000000000E-002   -1.171661628657715E-030
 -3.180000000000000E-002   -2.990006353021260E-030
 -3.170000000000000E-002   -5.676552436077458E-030
 -3.160000000000000E-002   -9.316228507137535E-030
 -3.150000000000000E-002   -1.383484427890736E-029
 -3.140000000000000E-002   -1.889006603804543E-029
 -3.130000000000000E-002   -2.374121482574648E-029
 -3.120000000000000E-002   -2.711217951492109E-029
 -3.110000000000000E-002   -2.707363978621638E-029
 -3.100000000000000E-002   -2.098499919672076E-029
 -3.090000000000000E-002   -5.551362715923578E-030
 -3.080000000000000E-002    2.293619456697789E-029
 -3.070000000000000E-002    6.810235260656275E-029
 -3.060000000000000E-002    1.326619215554158E-028
 -3.050000000000000E-002    2.172210886473866E-028
 -3.040000000000000E-002    3.187083611635354E-028
 -3.030000000000000E-002    4.285167319386033E-028
 -3.020000000000000E-002    5.305497078692799E-028
 -3.010000000000000E-002    5.995036215021202E-028
 -3.000000000000000E-002    5.998763491659857E-028
 -2.990000000000000E-002    4.863470787967185E-028
 -2.980000000000000E-002    2.062875461449579E-028
 -2.970000000000000E-002   -2.947978286607434E-028
 -2.960000000000000E-002   -1.064205681701963E-027
 -2.950000000000000E-002   -2.128933779133010E-027
 -2.940000000000000E-002   -3.478671915309362E-027
 -2.930000000000000E-002   -5.045805799338964E-027
 -2.920000000000000E-002   -6.684428276555074E-027
 -2.910000000000000E-002   -8.151609005719752E-027
 -2.900000000000000E-002   -9.095528640222615E-027
 -2.890000000000000E-002   -9.056276121102971E-027
 -2.880000000000000E-002   -7.485892873171082E-027
 -2.870000000000000E-002   -3.794234212926757E-027
 -2.860000000000000E-002    2.573967640281497E-027
 -2.850000000000000E-002    1.202816188642863E-026
 -2.840000000000000E-002    2.468901618360063E-026
 -2.830000000000000E-002    4.022165218639113E-026
 -2.820000000000000E-002    5.766130419567852E-026
 -2.810000000000000E-002    7.525660548024507E-026
 -2.800000000000000E-002    9.036457214347445E-026
 -2.790000000000000E-002    9.943854106813467E-026
 -2.780000000000000E-002    9.815387526847258E-026
 -2.770000000000000E-002    8.171397154918744E-026
 -2.760000000000000E-002    4.536884816852868E-026
 -2.750000000000000E-002   -1.484143861607141E-026
 -2.740000000000000E-002   -1.011366339787784E-025
 -2.730000000000000E-002   -2.128978009495951E-025
 -2.720000000000000E-002   -3.455265636335396E-025
 -2.710000000000000E-002   -4.894185249660509E-025
 -2.700000000000000E-002   -6.292527744807137E-025
 -2.690000000000000E-002   -7.438325988664648E-025
 -2.680000000000000E-002   -8.067208350788603E-025
 -2.670000000000000E-002   -7.878878775204319E-025
 -2.660000000000000E-002   -6.565230274032527E-025
 -2.650000000000000E-002   -3.850422770169653E-025
 -2.640000000000000E-002    4.583867318204300E-026
 -2.630000000000000E-002    6.413012184774448E-025
 -2.620000000000000E-002    1.386454805332591E-024
 -2.610000000000000E-002    2.240989928320844E-024
 -2.600000000000000E-002    3.135428593909402E-024
 -2.590000000000000E-002    3.970056400512674E-024
 -2.580000000000000E-002    4.617603619092910E-024
 -2.570000000000000E-002    4.930576852810155E-024
 -2.560000000000000E-002    4.753777707945112E-024
 -2.550000000000000E-002    3.941996838937432E-024
 -2.540000000000000E-002    2.382146867355284E-024
 -2.530000000000000E-002    1.824363511386729E-026
 -2.520000000000000E-002   -3.123238331272646E-024
 -2.510000000000000E-002   -6.910931569765134E-024
 -2.500000000000000E-002   -1.109295361089917E-023
 -2.490000000000000E-002   -1.529222263446289E-023
 -2.480000000000000E-002   -1.901658831467498E-023
 -2.470000000000000E-002   -2.168676904142933E-023
 -2.460000000000000E-002   -2.268354938825504E-023
 -2.450000000000000E-002   -2.141355311450300E-023
 -2.440000000000000E-002   -1.739018979158619E-023
 -2.430000000000000E-002   -1.032345295305040E-023
 -2.420000000000000E-002   -2.093025487146552E-025
 -2.410000000000000E-002    1.259307489598503E-023
 -2.400000000000000E-002    2.730938190569710E-023
 -2.390000000000000E-002    4.273713438994345E-023
 -2.380000000000000E-002    5.728331484924434E-023
 -2.370000000000000E-002    6.906106001338843E-023
 -2.360000000000000E-002    7.604826390634639E-023
 -2.350000000000000E-002    7.630350129646088E-023
 -2.340000000000000E-002    6.822617534305195E-023
 -2.330000000000000E-002    5.083867946235013E-023
 -2.320000000000000E-002    2.405995857242896E-023
 -2.310000000000000E-002   -1.106677314560942E-023
 -2.300000000000000E-002   -5.223272550122442E-023
 -2.290000000000000E-002   -9.584819587010033E-023
 -2.280000000000000E-002   -1.371864526374962E-022
 -2.270000000000000E-002   -1.707078012572543E-022
 -2.260000000000000E-002   -1.905670275687443E-022
 -2.250000000000000E-002   -1.912847366287261E-022
 -2.240000000000000E-002   -1.685375374574895E-022
 -2.230000000000000E-002   -1.199956920589631E-022
 -2.220000000000000E-002   -4.611333174782568E-023
 -2.210000000000000E-002    4.924090143426500E-023
 -2.200000000000000E-002    1.584325485032197E-022
 -2.190000000000000E-002    2.701032305772201E-022
 -2.180000000000000E-002    3.696984569655798E-022
 -2.170000000000000E-002    4.405363278972755E-022
 -2.160000000000000E-002    4.654171049597310E-022
 -2.150000000000000E-002    4.287080438594865E-022
 -2.140000000000000E-002    3.187608831975618E-022
 -2.130000000000000E-002    1.304448390780547E-022
 -2.120000000000000E-002   -1.324905213330466E-022
 -2.110000000000000E-002   -4.555569929978270E-022
 -2.100000000000000E-002   -8.125285983719173E-022
 -2.090000000000000E-002   -1.165637157704843E-021
 -2.080000000000000E-002   -1.467236310094838E-021
 -2.070000000000000E-002   -1.663092981087578E-021
 -2.060000000000000E-002   -1.697310336794842E-021
 -2.050000000000000E-002   -1.518688834637428E-021
 -2.040000000000000E-002   -1.088113284254948E-021
 -2.030000000000000E-002   -3.863363463345680E-022
 -2.020000000000000E-002    5.786709899559207E-022
 -2.010000000000000E-002    1.765770078154170E-021
 -2.000000000000000E-002    3.097135804530483E-021
 -1.990000000000000E-002    4.458143882625636E-021
 -1.980000000000000E-002    5.701471602713901E-021
 -1.970000000000000E-002    6.655894923087332E-021
 -1.960000000000000E-002    7.139837193049743E-021
 -1.950000000000000E-002    6.979186235622501E-021
 -1.940000000000000E-002    6.028287143540353E-021
 -1.930000000000000E-002    4.192432911189394E-021
 -1.920000000000000E-002    1.449646719910787E-021
 -1.910000000000000E-002   -2.130841921090107E-021
 -1.900000000000000E-002   -6.376163312542919E-021
 -1.890000000000000E-002   -1.100603963476648E-020
 -1.880000000000000E-002   -1.563983873776104E-020
 -1.870000000000000E-002   -1.981582621885816E-020
 -1.860000000000000E-002   -2.302288326019118E-020
 -1.850000000000000E-002   -2.474364379698660E-020
 -1.840000000000000E-002   -2.450652034721215E-020
 -1.830000000000000E-002   -2.194267493625659E-020
 -1.820000000000000E-002   -1.684270707112646E-020
 -1.810000000000000E-002   -9.206985833477728E-021
 -1.800000000000000E-002    7.168583025573998E-022
 -1.790000000000000E-002    1.241545150087389E-020
 -1.780000000000000E-002    2.511537529717514E-020
 -1.770000000000000E-002    3.781647860917883E-020
 -1.760000000000000E-002    4.935383745616934E-020
 -1.750000000000000E-002    5.848659301542659E-020
 -1.740000000000000E-002    6.400862499931211E-020
 -1.730000000000000E-002    6.487316417562269E-020
 -1.720000000000000E-002    6.032054098915204E-020
 -1.710000000000000E-002    4.999643340745555E-020
 -1.700000000000000E-002    3.404699052258993E-020
 -1.690000000000000E-002    1.317751126464836E-020
 -1.680000000000000E-002   -1.133692910943083E-020
 -1.670000000000000E-002   -3.769735014421372E-020
 -1.660000000000000E-002   -6.368726009654169E-020
 -1.650000000000000E-002   -8.683799079709860E-020
 -1.640000000000000E-002   -1.046452633678788E-019
 -1.630000000000000E-002   -1.148229326559513E-019
 -1.620000000000000E-002   -1.155735456799741E-019
 -1.610000000000000E-002   -1.058507488841261E-019
 -1.600000000000000E-002   -8.558463709148819E-020
 -1.590000000000000E-002   -5.584030238321710E-020
 -1.580000000000000E-002   -1.888104408554671E-020
 -1.570000000000000E-002    2.188782344870890E-020
 -1.560000000000000E-002    6.211085143606894E-020
 -1.550000000000000E-002    9.681552539927678E-020
 -1.540000000000000E-002    1.208786923068858E-019
 -1.530000000000000E-002    1.296022076668300E-019
 -1.520000000000000E-002    1.193578563138727E-019
 -1.510000000000000E-002    8.824435256591658E-020
 -1.500000000000000E-002    3.668614852478808E-020
 -1.490000000000000E-002   -3.210694379483396E-020
 -1.480000000000000E-002   -1.119032899518168E-019
 -1.470000000000000E-002   -1.935150013801701E-019
 -1.460000000000000E-002   -2.652300246518713E-019
 -1.450000000000000E-002   -3.136479150630486E-019
 -1.440000000000000E-002   -3.249208055513627E-019
 -1.430000000000000E-002   -2.863524968519006E-019
 -1.420000000000000E-002   -1.882566491137399E-019
 -1.410000000000000E-002   -2.591866340518516E-020
 -1.400000000000000E-002    1.985448851172583E-019
 -1.390000000000000E-002    4.746756168490122E-019
 -1.380000000000000E-002    7.827765760004610E-019
 -1.370000000000000E-002    1.093889542281906E-018
 -1.360000000000000E-002    1.370864341883158E-018
 -1.350000000000000E-002    1.570661400137965E-018
 -1.340000000000000E-002    1.647917312302694E-018
 -1.330000000000000E-002    1.559656301553797E-018
 -1.320000000000000E-002    1.270866073347099E-018
 -1.310000000000000E-002    7.604872735146746E-019
 -1.300000000000000E-002    2.720797851126611E-020
 -1.290000000000000E-002   -9.056600330341290E-019
 -1.280000000000000E-002   -1.987004927788620E-018
 -1.270000000000000E-002   -3.137193915452900E-018
 -1.260000000000000E-002   -4.250437863983222E-018
 -1.250000000000000E-002   -5.200643727596106E-018
 -1.240000000000000E-002   -5.850837157660223E-018
 -1.230000000000000E-002   -6.065825954750687E-018
 -1.220000000000000E-002   -5.727333616711550E-018
 -1.210000000000000E-002   -4.750377164388551E-018
 -1.200000000000000E-002   -3.099274776736271E-018
 -1.190000000000000E-002   -8.013993703894774E-019
 -1.180000000000000E-002    2.043325222986487E-018
 -1.170000000000000E-002    5.259062336191294E-018
 -1.160000000000000E-002    8.598360044162253E-018
 -1.150000000000000E-002    1.175502645640120E-017
 -1.140000000000000E-002    1.438568122212512E-017
 -1.130000000000000E-002    1.613909900152870E-017
 -1.120000000000000E-002    1.669142504656099E-017
 -1.110000000000000E-002    1.578433294266440E-017
 -1.100000000000000E-002    1.326239408955809E-017
 -1.090000000000000E-002    9.105407709867182E-018
 -1.080000000000000E-002    3.451351973843657E-018
 -1.070000000000000E-002   -3.393987578109162E-018
 -1.060000000000000E-002   -1.096371911620319E-017
 -1.050000000000000E-002   -1.865448922720546E-017
 -1.040000000000000E-002   -2.576883301448553E-017
 -1.030000000000000E-002   -3.157300572407712E-017
 -1.020000000000000E-002   -3.536595350828759E-017
 -1.010000000000000E-002   -3.655326494685351E-017
 -1.000000000000000E-002   -3.471860931671034E-017
 -9.899999999999999E-003   -2.968448762348404E-017
 -9.800000000000000E-003   -2.155441581315096E-017
 -9.699999999999999E-003   -1.072983377114464E-017
 -9.599999999999999E-003    2.102750453506582E-018
 -9.500000000000000E-003    1.601589697562199E-017
 -9.399999999999999E-003    2.991465919493168E-017
 -9.299999999999999E-003    4.263359243100671E-017
 -9.200000000000000E-003    5.304823113236394E-017
 -9.099999999999999E-003    6.018921761904722E-017
 -8.999999999999999E-003    6.334580328415122E-017
 -8.900000000000000E-003    6.214545192295657E-017
 -8.799999999999999E-003    5.659796411777544E-017
 -8.699999999999999E-003    4.709603354898951E-017
 -8.600000000000000E-003    3.436901021973432E-017
 -8.499999999999999E-003    1.939264600389204E-017
 -8.399999999999999E-003    3.263791529090311E-018
 -8.300000000000000E-003   -1.294493367900116E-017
 -8.199999999999999E-003   -2.833101885714149E-017
 -8.100000000000000E-003   -4.228638748501221E-017
 -8.000000000000000E-003   -5.457828059253281E-017
 -7.899999999999999E-003   -6.536815085182749E-017
 -7.800000000000000E-003   -7.515650027310780E-017
 -7.699999999999999E-003   -8.465076773430916E-017
 -7.599999999999999E-003   -9.456471431585989E-017
 -7.499999999999999E-003   -1.053695265490161E-016
 -7.399999999999999E-003   -1.170283685385532E-016
 -7.299999999999999E-003   -1.287546666891256E-016
 -7.199999999999999E-003   -1.388394752702311E-016
 -7.100000000000000E-003   -1.445928781776228E-016
 -6.999999999999999E-003   -1.424372874970078E-016
 -6.899999999999999E-003   -1.281777311285137E-016
 -6.800000000000000E-003   -9.745469506493885E-017
 -6.699999999999999E-003   -4.636111659741574E-017
 -6.599999999999999E-003    2.782047295272199E-017
 -6.499999999999999E-003    1.258313838768316E-016
 -6.399999999999999E-003    2.456922868684946E-016
 -6.299999999999999E-003    3.821086532988501E-016
 -6.199999999999999E-003    5.261366688035434E-016
 -6.100000000000000E-003    6.652129409100045E-016
 -5.999999999999999E-003    7.836289656660676E-016
 -5.899999999999999E-003    8.634938513883568E-016
 -5.800000000000000E-003    8.861805306031287E-016
 -5.699999999999999E-003    8.341949149409068E-016
 -5.599999999999999E-003    6.933434396724352E-016
 -5.499999999999999E-003    4.550195027005041E-016
 -5.399999999999999E-003    1.183793725783255E-016
 -5.299999999999999E-003   -3.078520514455515E-016
 -5.199999999999999E-003   -8.042131036602330E-016
 -5.099999999999999E-003   -1.340221655191930E-015
 -4.999999999999999E-003   -1.875171255697941E-015
 -4.899999999999999E-003   -2.360122193894173E-015
 -4.799999999999999E-003   -2.741094471805432E-015
 -4.699999999999999E-003   -2.963345732661491E-015
 -4.599999999999999E-003   -2.976486946789918E-015
 -4.499999999999999E-003   -2.740052856885834E-015
 -4.399999999999999E-003   -2.229051892500576E-015
 -4.299999999999999E-003   -1.438932851651944E-015
 -4.199999999999999E-003   -3.893899428131750E-016
 -4.099999999999999E-003    8.735460723483544E-016
 -3.999999999999999E-003    2.277588825045385E-015
 -3.899999999999999E-003    3.726754741433728E-015
 -3.799999999999999E-003    5.106507142645754E-015
 -3.699999999999999E-003    6.291339810131488E-015
 -3.599999999999999E-003    7.154407485748115E-015
 -3.499999999999999E-003    7.578550144224640E-015
 -3.399999999999999E-003    7.467850147838849E-015
 -3.299999999999999E-003    6.758687434282668E-015
 -3.199999999999999E-003    5.429209855150449E-015
 -3.099999999999999E-003    3.506145873982244E-015
 -2.999999999999999E-003    1.068038027681792E-015
 -2.899999999999999E-003   -1.755778612821621E-015
 -2.799999999999999E-003   -4.790785762234239E-015
 -2.699999999999999E-003   -7.827406816478449E-015
 -2.599999999999999E-003   -1.063512004786827E-014
 -2.499999999999999E-003   -1.297961444548722E-014
 -2.399999999999999E-003   -1.464166012071840E-014
 -2.299999999999999E-003   -1.543609515714838E-014
 -2.199999999999999E-003   -1.522919524891990E-014
 -2.099999999999999E-003   -1.395273061735055E-014
 -1.999999999999999E-003   -1.161321959923413E-014
 -1.899999999999999E-003   -8.295283091703549E-015
 -1.799999999999999E-003   -4.158509633619396E-015
 -1.699999999999999E-003    5.721271266923643E-016
 -1.599999999999999E-003    5.621607978781962E-015
 -1.499999999999999E-003    1.068465012229315E-014
 -1.399999999999999E-003    1.544811198996969E-014
 -1.299999999999999E-003    1.961387284873421E-014
 -1.199999999999999E-003    2.291990950498125E-014
 -1.099999999999999E-003    2.515746329313696E-014
 -9.999999999999989E-004    2.618260569696044E-014
 -8.999999999999990E-004    2.592110655985408E-014
 -7.999999999999990E-004    2.436637747864883E-014
 -6.999999999999989E-004    2.157111262548302E-014
 -5.999999999999990E-004    1.763411087628406E-014
 -4.999999999999989E-004    1.268453362324762E-014
 -3.999999999999989E-004    6.866253232920598E-015
 -2.999999999999989E-004    3.251813210728469E-016
 -1.999999999999989E-004   -6.797880721360709E-015
 -9.999999999999892E-005   -1.436694846988517E-014
  1.084202172485504E-018   -2.224222106335256E-014
  1.000000000000011E-004   -3.026358382234153E-014
  2.000000000000011E-004   -3.822813328598318E-014
  3.000000000000011E-004   -4.586503171183473E-014
  4.000000000000011E-004   -5.281223952273049E-014
  5.000000000000011E-004   -5.860036859027064E-014
  6.000000000000011E-004   -6.264911650769231E-014
  7.000000000000011E-004   -6.428113375422881E-014
  8.000000000000011E-004   -6.275683933618308E-014
  9.000000000000012E-004   -5.733176249120718E-014
  1.000000000000001E-003   -4.733511545213025E-014
  1.100000000000001E-003   -3.226545273830229E-014
  1.200000000000001E-003   -1.189609770535489E-014
  1.300000000000001E-003    1.361984713870210E-014
  1.400000000000001E-003    4.365705399927211E-014
  1.500000000000001E-003    7.705161837863232E-014
  1.600000000000001E-003    1.120738972198269E-013
  1.700000000000001E-003    1.464519716555563E-013
  1.800000000000001E-003    1.774539560740368E-013
  1.900000000000001E-003    2.020326963341429E-013
  2.000000000000001E-003    2.170302649342097E-013
  2.100000000000001E-003    2.194334390588776E-013
  2.200000000000001E-003    2.066645225848317E-013
  2.300000000000001E-003    1.768857867516400E-013
  2.400000000000001E-003    1.292909600686385E-013
  2.500000000000001E-003    6.435453510801248E-014
  2.600000000000001E-003   -1.599086839958184E-014
  2.700000000000001E-003   -1.082762366447207E-013
  2.800000000000001E-003   -2.075389003625987E-013
  2.900000000000001E-003   -3.074993573077035E-013
  3.000000000000001E-003   -4.008755869637102E-013
  3.100000000000001E-003   -4.798250438928405E-013
  3.200000000000001E-003   -5.364934392621514E-013
  3.300000000000001E-003   -5.636350746464612E-013
  3.400000000000001E-003   -5.552615768837594E-013
  3.500000000000001E-003   -5.072665593235758E-013
  3.600000000000001E-003   -4.179720370825254E-013
  3.700000000000001E-003   -2.885420879368751E-013
  3.800000000000001E-003   -1.232162073905316E-013
  3.900000000000001E-003    7.067434467961458E-014
  4.000000000000001E-003    2.829294195841811E-013
  4.100000000000001E-003    5.009453563485788E-013
  4.200000000000001E-003    7.104067307764087E-013
  4.300000000000001E-003    8.961682788849777E-013
  4.400000000000001E-003    1.043272357235098E-012
  4.500000000000001E-003    1.138033227327619E-012
  4.600000000000002E-003    1.169108095299930E-012
  4.700000000000001E-003    1.128473403850983E-012
  4.800000000000001E-003    1.012227008773266E-012
  4.900000000000002E-003    8.211460287366722E-013
  5.000000000000001E-003    5.609478923975379E-013
  5.100000000000001E-003    2.422224145120604E-013
  5.200000000000001E-003   -1.199724102386880E-013
  5.300000000000002E-003   -5.068333746242836E-013
  5.400000000000001E-003   -8.968104048273529E-013
  5.500000000000001E-003   -1.266818396553049E-012
  5.600000000000002E-003   -1.593578584063832E-012
  5.700000000000001E-003   -1.855005885837393E-012
  5.800000000000001E-003   -2.031546141913195E-012
  5.900000000000002E-003   -2.107382393826959E-012
  6.000000000000001E-003   -2.071432472237533E-012
  6.100000000000001E-003   -1.918088680452087E-012
  6.200000000000002E-003   -1.647661637088964E-012
  6.300000000000002E-003   -1.266520458589456E-012
  6.400000000000001E-003   -7.869381374381550E-013
  6.500000000000001E-003   -2.266713419685820E-013
  6.600000000000002E-003    3.916850297790674E-013
  6.700000000000001E-003    1.041521791155301E-012
  6.800000000000001E-003    1.693171527666237E-012
  6.900000000000002E-003    2.314956786893597E-012
  7.000000000000001E-003    2.874303088461406E-012
  7.100000000000001E-003    3.338897595779028E-012
  7.200000000000002E-003    3.677892820046546E-012
  7.300000000000002E-003    3.863159282525076E-012
  7.400000000000001E-003    3.870593239664267E-012
  7.500000000000001E-003    3.681483709151726E-012
  7.600000000000002E-003    3.283925916276636E-012
  7.700000000000001E-003    2.674247800865622E-012
  7.800000000000001E-003    1.858385116610459E-012
  7.900000000000001E-003    8.531104834229583E-013
  8.000000000000002E-003   -3.130119942936331E-013
  8.100000000000001E-003   -1.599096637078729E-012
  8.200000000000001E-003   -2.951999775557107E-012
  8.300000000000002E-003   -4.307138365356195E-012
  8.400000000000001E-003   -5.590208795360987E-012
  8.500000000000002E-003   -6.719894277521472E-012
  8.600000000000002E-003   -7.611602303733054E-012
  8.700000000000001E-003   -8.182164332066293E-012
  8.800000000000002E-003   -8.355342162188109E-012
  8.900000000000002E-003   -8.067885221890598E-012
  9.000000000000001E-003   -7.275759892942855E-012
  9.100000000000002E-003   -5.960101642954620E-012
  9.200000000000002E-003   -4.132375410185501E-012
  9.300000000000001E-003   -1.838197252179276E-012
  9.400000000000002E-003    8.406989879197288E-013
  9.500000000000001E-003    3.786808650001215E-012
  9.600000000000001E-003    6.849834209761610E-012
  9.700000000000002E-003    9.852471961329872E-012
  9.800000000000001E-003    1.259894533150493E-011
  9.900000000000001E-003    1.488603296606492E-011
  1.000000000000000E-002    1.651604457420967E-011
  1.010000000000000E-002    1.731105355107891E-011
  1.020000000000000E-002    1.712741936812454E-011
  1.030000000000000E-002    1.586956527640257E-011
  1.040000000000000E-002    1.350188806540706E-011
  1.050000000000000E-002    1.005769733045319E-011
  1.060000000000000E-002    5.644214583954310E-012
  1.070000000000000E-002    4.428655682814665E-013
  1.080000000000000E-002   -5.295629245563792E-012
  1.090000000000000E-002   -1.126146646170806E-011
  1.100000000000000E-002   -1.710103076355061E-011
  1.110000000000000E-002   -2.243652486861316E-011
  1.120000000000000E-002   -2.688894541601907E-011
  1.130000000000000E-002   -3.010296011384714E-011
  1.140000000000000E-002   -3.177212537561464E-011
  1.150000000000000E-002   -3.166263139705799E-011
  1.160000000000000E-002   -2.963385769309423E-011
  1.170000000000000E-002   -2.565408999065970E-011
  1.180000000000000E-002   -1.981004767016598E-011
  1.190000000000000E-002   -1.230920275865142E-011
  1.200000000000000E-002   -3.474420070796303E-012
  1.210000000000000E-002    6.269104422422794E-012
  1.220000000000000E-002    1.641406805312798E-011
  1.230000000000000E-002    2.639734605589784E-011
  1.240000000000000E-002    3.563085622171642E-011
  1.250000000000000E-002    4.353516003447261E-011
  1.260000000000000E-002    4.957364711134799E-011
  1.270000000000000E-002    5.328529459585146E-011
  1.280000000000000E-002    5.431385552162400E-011
  1.290000000000000E-002    5.243171030988515E-011
  1.300000000000000E-002    4.755693210789659E-011
  1.310000000000000E-002    3.976256556741002E-011
  1.320000000000000E-002    2.927765587233675E-011
  1.330000000000000E-002    1.648003702379652E-011
  1.340000000000000E-002    1.881450316989296E-012
  1.350000000000000E-002   -1.389406015566790E-011
  1.360000000000000E-002   -3.013720495029603E-011
  1.370000000000000E-002   -4.608438038901473E-011
  1.380000000000000E-002   -6.095100930854486E-011
  1.390000000000000E-002   -7.396554595775014E-011
  1.400000000000000E-002   -8.440283906044757E-011
  1.410000000000000E-002   -9.161559076244260E-011
  1.420000000000000E-002   -9.506283780766433E-011
  1.430000000000000E-002   -9.433477061631719E-011
  1.440000000000000E-002   -8.917331952170693E-011
  1.450000000000000E-002   -7.948814821936417E-011
  1.460000000000000E-002   -6.536777526622549E-011
  1.470000000000000E-002   -4.708561019190048E-011
  1.480000000000000E-002   -2.510065128956641E-011
  1.490000000000000E-002   -5.246920842213479E-014
  1.500000000000000E-002    2.724974974411369E-011
  1.510000000000000E-002    5.584470019236941E-011
  1.520000000000000E-002    8.464324916554650E-011
  1.530000000000000E-002    1.124597575776141E-010
  1.540000000000000E-002    1.380503591313037E-010
  1.550000000000000E-002    1.601579295085140E-010
  1.560000000000000E-002    1.775626058976098E-010
  1.570000000000000E-002    1.891364768542282E-010
  1.580000000000000E-002    1.939002397466277E-010
  1.590000000000000E-002    1.910790859409177E-010
  1.600000000000000E-002    1.801546466487195E-010
  1.610000000000000E-002    1.609094020439027E-010
  1.620000000000000E-002    1.334600401250210E-010
  1.630000000000000E-002    9.827638923387688E-011
  1.640000000000000E-002    5.618317656626470E-011
  1.650000000000000E-002    8.342834840122544E-012
  1.660000000000000E-002   -4.378146583700313E-011
  1.670000000000000E-002   -9.848162860540238E-011
  1.680000000000000E-002   -1.538771600761305E-010
  1.690000000000000E-002   -2.080004568123736E-010
  1.700000000000000E-002   -2.588897829002029E-010
  1.710000000000000E-002   -3.046836659079135E-010
  1.720000000000000E-002   -3.437097577578952E-010
  1.730000000000000E-002   -3.745612584178047E-010
  1.740000000000000E-002   -3.961542318911676E-010
  1.750000000000000E-002   -4.077605942665414E-010
  1.760000000000000E-002   -4.090128229552436E-010
  1.770000000000000E-002   -3.998790774467498E-010
  1.780000000000000E-002   -3.806096022777506E-010
  1.790000000000000E-002   -3.516582604383207E-010
  1.800000000000000E-002   -3.135852684902879E-010
  1.810000000000000E-002   -2.669499838826159E-010
  1.820000000000000E-002   -2.122038509436361E-010
  1.830000000000000E-002   -1.495950643407254E-010
  1.840000000000000E-002   -7.909653609758850E-011
  1.850000000000000E-002   -3.672505109718030E-013
  1.860000000000000E-002    8.724335251677069E-011
  1.870000000000000E-002    1.846426213408217E-010