 -4.000000000000000E-002    0.000000000000000E+000
 -3.990000000000000E-002    0.000000000000000E+000
 -3.980000000000000E-002    0.000000000000000E+000
 -3.970000000000000E-002    0.000000000000000E+000
 -3.960000000000000E-002    0.000000000000000E+000
 -3.950000000000000E-002    7.649503036080609E-022
 -3.940000000000000E-002    7.694436315177115E-021
 -3.930000000000000E-002    4.125265785137902E-020
 -3.920000000000000E-002    1.553487460871042E-019
 -3.910000000000000E-002    4.562761083385105E-019
 -3.900000000000000E-002    1.096607326459721E-018
 -3.890000000000000E-002    2.191536751401033E-018
 -3.880000000000000E-002    3.576767062592355E-018
 -3.870000000000000E-002    4.313128520368785E-018
 -3.860000000000000E-002    1.868399462341995E-018
 -3.850000000000000E-002   -8.998682136381100E-018
 -3.840000000000000E-002   -3.743958940215702E-017
 -3.830000000000000E-002   -9.729974447567722E-017
 -3.820000000000000E-002   -2.066214819277427E-016
 -3.810000000000000E-002   -3.846475056263280E-016
 -3.800000000000000E-002   -6.448926790777011E-016
 -3.790000000000000E-002   -9.829699570146958E-016
 -3.780000000000000E-002   -1.358505021682953E-015
 -3.770000000000000E-002   -1.671839405078775E-015
 -3.760000000000000E-002   -1.738371594509682E-015
 -3.750000000000000E-002   -1.266225002064369E-015
 -3.740000000000000E-002    1.539067324763480E-016
 -3.730000000000000E-002    3.035046724777434E-015
 -3.720000000000000E-002    7.943033207618827E-015
 -3.710000000000000E-002    1.539583232225519E-014
 -3.700000000000000E-002    2.570459883120072E-014
 -3.690000000000000E-002    3.875634895824581E-014
 -3.680000000000000E-002    5.375102985497593E-014
 -3.670000000000000E-002    6.892245557240153E-014
 -3.660000000000000E-002    8.129152184181087E-014
 -3.650000000000000E-002    8.651826713562902E-014
 -3.640000000000000E-002    7.893271460556653E-014
 -3.630000000000000E-002    5.182846840807395E-014
 -3.620000000000000E-002   -1.907141687651501E-015
 -3.610000000000000E-002   -8.878044597767234E-014
 -3.600000000000000E-002   -2.132978476882745E-013
 -3.590000000000000E-002   -3.762594548229411E-013
 -3.580000000000000E-002   -5.728878491208446E-013
 -3.570000000000000E-002   -7.910245813200845E-013
 -3.560000000000000E-002   -1.009705050075424E-012
 -3.550000000000000E-002   -1.198475893041854E-012
 -3.540000000000000E-002   -1.317834063151089E-012
 -3.530000000000000E-002   -1.321127655963168E-012
 -3.520000000000000E-002   -1.158154649234718E-012
 -3.510000000000000E-002   -7.805224536593027E-013
 -3.500000000000000E-002   -1.486009793305915E-013
 -3.490000000000000E-002    7.603770192749407E-013
 -3.480000000000000E-002    1.943802677894608E-012
 -3.470000000000000E-002    3.365765318590722E-012
 -3.460000000000000E-002    4.950911421988281E-012
 -3.450000000000000E-002    6.581361935501950E-012
 -3.440000000000000E-002    8.097897471812872E-012
 -3.430000000000000E-002    9.306356429120195E-012
 -3.420000000000000E-002    9.989761457186347E-012
 -3.410000000000000E-002    9.926080110721483E-012
 -3.400000000000000E-002    8.910804333232973E-012
 -3.390000000000000E-002    6.782756365019267E-012
 -3.380000000000000E-002    3.450815174386684E-012
 -3.370000000000000E-002   -1.081323225668194E-012
 -3.360000000000000E-002   -6.695543738178210E-012
 -3.350000000000000E-002   -1.314802701920711E-011
 -3.340000000000000E-002   -2.006901041898324E-011
 -3.330000000000000E-002   -2.697547790350307E-011
 -3.320000000000000E-002   -3.329742924667522E-011
 -3.310000000000000E-002   -3.841690265617562E-011
 -3.300000000000000E-002   -4.171731688945354E-011
 -3.290000000000000E-002   -4.263915280929818E-011
 -3.280000000000000E-002   -4.073674540442290E-011
 -3.270000000000000E-002   -3.573019906043924E-011
 -3.260000000000000E-002   -2.754631853828740E-011
 -3.250000000000000E-002   -1.634310635543468E-011
 -3.240000000000000E-002   -2.513775217868716E-012
 -3.230000000000000E-002    1.333166730040566E-011
 -3.220000000000000E-002    3.040664600303457E-011
 -3.210000000000000E-002    4.780666948531150E-011
 -3.200000000000000E-002    6.458041439752522E-011
 -3.190000000000000E-002    7.980520480514176E-011
 -3.180000000000000E-002    9.265768182698299E-011
 -3.170000000000000E-002    1.024704376918654E-010
 -3.160000000000000E-002    1.087667479035900E-010
 -3.150000000000000E-002    1.112681267735506E-010
 -3.140000000000000E-002    1.098730847621689E-010
 -3.130000000000000E-002    1.046098656558337E-010
 -3.120000000000000E-002    9.557040178592550E-011
 -3.110000000000000E-002    8.283674450463831E-011
 -3.100000000000000E-002    6.641395580547243E-011
 -3.090000000000000E-002    4.618454435563228E-011
 -3.080000000000000E-002    2.189830431899913E-011
 -3.070000000000000E-002   -6.792051802084150E-012
 -3.060000000000000E-002   -4.024484421396399E-011
 -3.050000000000000E-002   -7.869579534301171E-011
 -3.040000000000000E-002   -1.220879337882120E-010
 -3.030000000000000E-002   -1.698845122636072E-010
 -3.020000000000000E-002   -2.208911098487730E-010
 -3.010000000000000E-002   -2.731175146807261E-010
 -3.000000000000000E-002   -3.237106427335186E-010
 -2.990000000000000E-002   -3.689862009941433E-010
 -2.980000000000000E-002   -4.045787288700249E-010
 -2.970000000000000E-002   -4.257174625803317E-010
 -2.960000000000000E-002   -4.276202858353786E-010
 -2.950000000000000E-002   -4.059808286731714E-010
 -2.940000000000000E-002   -3.575076280216968E-010
 -2.930000000000000E-002   -2.804601046194367E-010
 -2.920000000000000E-002   -1.751173290862893E-010
 -2.910000000000000E-002   -4.411297152357660E-011
 -2.900000000000000E-002    1.074240967501301E-010
 -2.890000000000000E-002    2.719703632570036E-010
 -2.880000000000000E-002    4.399740021045230E-010
 -2.870000000000000E-002    6.004834338978945E-010
 -2.860000000000000E-002    7.420034457703054E-010
 -2.850000000000000E-002    8.535120871174331E-010
 -2.840000000000000E-002    9.255447613136561E-010
 -2.830000000000000E-002    9.512312892250749E-010
 -2.820000000000000E-002    9.271639088570970E-010
 -2.810000000000000E-002    8.539795023981905E-010
 -2.800000000000000E-002    7.365585127074419E-010
 -2.790000000000000E-002    5.837776600719757E-010
 -2.780000000000000E-002    4.077988742885894E-010
 -2.770000000000000E-002    2.229295235169432E-010
 -2.760000000000000E-002    4.414377716741757E-011
 -2.750000000000000E-002   -1.145947510092419E-010
 -2.740000000000000E-002   -2.420313690413580E-010
 -2.730000000000000E-002   -3.311381822478797E-010
 -2.720000000000000E-002   -3.802524779747400E-010
 -2.710000000000000E-002   -3.936579978708505E-010
 -2.700000000000000E-002   -3.814808292947480E-010
 -2.690000000000000E-002   -3.588383333760090E-010
 -2.680000000000000E-002   -3.442629298308633E-010
 -2.670000000000000E-002   -3.575097162529618E-010
 -2.660000000000000E-002   -4.169437744663103E-010
 -2.650000000000000E-002   -5.367723737086950E-010
 -2.640000000000000E-002   -7.244351887158132E-010
 -2.630000000000000E-002   -9.784805115715225E-010
 -2.620000000000000E-002   -1.287234983731980E-009
 -2.610000000000000E-002   -1.628515367751317E-009
 -2.600000000000000E-002   -1.970536451378341E-009
 -2.590000000000000E-002   -2.274050621022115E-009
 -2.580000000000000E-002   -2.495618108068556E-009
 -2.570000000000000E-002   -2.591768402177920E-009
 -2.560000000000000E-002   -2.523691324323518E-009
 -2.550000000000000E-002   -2.262001003583583E-009
 -2.540000000000000E-002   -1.791064809647828E-009
 -2.530000000000000E-002   -1.112388081634485E-009
 -2.520000000000000E-002   -2.466021091238187E-010
 -2.510000000000000E-002    7.662868673855340E-010
 -2.500000000000000E-002    1.868573504415131E-009
 -2.490000000000000E-002    2.988450660847584E-009
 -2.480000000000000E-002    4.045318508076968E-009
 -2.470000000000000E-002    4.956402112311741E-009
 -2.460000000000000E-002    5.644105189067909E-009
 -2.450000000000000E-002    6.043406883354520E-009
 -2.440000000000000E-002    6.108558995905520E-009
 -2.430000000000000E-002    5.818363132864798E-009
 -2.420000000000000E-002    5.179405884021077E-009
 -2.410000000000000E-002    4.226809171071871E-009
 -2.400000000000000E-002    3.022277940830705E-009
 -2.390000000000000E-002    1.649500836832316E-009
 -2.380000000000000E-002    2.072346570191304E-010
 -2.370000000000000E-002   -1.199340384297121E-009
 -2.360000000000000E-002   -2.468191818859599E-009
 -2.350000000000000E-002   -3.510001677901998E-009
 -2.340000000000000E-002   -4.256748357152040E-009
 -2.330000000000000E-002   -4.668382789219556E-009
 -2.320000000000000E-002   -4.736839688740924E-009
 -2.310000000000000E-002   -4.486867569134569E-009
 -2.300000000000000E-002   -3.973480326099442E-009
 -2.290000000000000E-002   -3.276180414082610E-009
 -2.280000000000000E-002   -2.490457562614260E-009
 -2.270000000000000E-002   -1.717378207753033E-009
 -2.260000000000000E-002   -1.052323413675028E-009
 -2.250000000000000E-002   -5.740689627154115E-010
 -2.240000000000000E-002   -3.354207013284396E-010
 -2.230000000000000E-002   -3.565015583748460E-010
 -2.220000000000000E-002   -6.215506613870397E-010
 -2.210000000000000E-002   -1.079754515082603E-009
 -2.200000000000000E-002   -1.650210829668550E-009
 -2.190000000000000E-002   -2.230683768475530E-009
 -2.180000000000000E-002   -2.709375461131814E-009
 -2.170000000000000E-002   -2.978563895293574E-009
 -2.160000000000000E-002   -2.948694856219327E-009
 -2.150000000000000E-002   -2.561379910432261E-009
 -2.140000000000000E-002   -1.799783926906906E-009
 -2.130000000000000E-002   -6.950716512813154E-010
 -2.120000000000000E-002    6.720700543753629E-010
 -2.110000000000000E-002    2.175359485140915E-009
 -2.100000000000000E-002    3.652269720188479E-009
 -2.090000000000000E-002    4.918208001507638E-009
 -2.080000000000000E-002    5.784385884120858E-009
 -2.070000000000000E-002    6.077777716186632E-009
 -2.060000000000000E-002    5.661269948570874E-009
 -2.050000000000000E-002    4.451942435732160E-009
 -2.040000000000000E-002    2.435497335561749E-009
 -2.030000000000000E-002   -3.248843133575177E-010
 -2.020000000000000E-002   -3.686526409936398E-009
 -2.010000000000000E-002   -7.432753062219237E-009
 -2.000000000000000E-002   -1.128585813191764E-008
 -1.990000000000000E-002   -1.492680396024579E-008
 -1.980000000000000E-002   -1.802020153168237E-008
 -1.970000000000000E-002   -2.024255871917948E-008
 -1.960000000000000E-002   -2.131138830007872E-008
 -1.950000000000000E-002   -2.101259268683028E-008
 -1.940000000000000E-002   -1.922357103373064E-008
 -1.930000000000000E-002   -1.592987810006350E-008
 -1.920000000000000E-002   -1.123373965258501E-008
 -1.910000000000000E-002   -5.353494753521871E-009
 -1.900000000000000E-002    1.386115493504937E-009
 -1.890000000000000E-002    8.572060687247036E-009
 -1.880000000000000E-002    1.572788183112651E-008
 -1.870000000000000E-002    2.234299676908971E-008
 -1.860000000000000E-002    2.790364918224035E-008
 -1.850000000000000E-002    3.192233930669082E-008
 -1.840000000000000E-002    3.396287834626701E-008
 -1.830000000000000E-002    3.365823304097914E-008
 -1.820000000000000E-002    3.071925308356019E-008
 -1.810000000000000E-002    2.493302856670071E-008
 -1.800000000000000E-002    1.615059872209912E-008
 -1.790000000000000E-002    4.264924626721954E-009
 -1.780000000000000E-002   -1.081913626772780E-008
 -1.770000000000000E-002   -2.922007956943503E-008
 -1.760000000000000E-002   -5.111706816275255E-008
 -1.750000000000000E-002   -7.678576064957604E-008
 -1.740000000000000E-002   -1.066286713659849E-007
 -1.730000000000000E-002   -1.411974970457959E-007
 -1.720000000000000E-002   -1.812040521779654E-007
 -1.710000000000000E-002   -2.275189066229156E-007
 -1.700000000000000E-002   -2.811568592574018E-007
 -1.690000000000000E-002   -3.432498317539034E-007
 -1.680000000000000E-002   -4.150097776026054E-007
 -1.670000000000000E-002   -4.976834710034835E-007
 -1.660000000000000E-002   -5.925036161173312E-007
 -1.650000000000000E-002   -7.006404692893835E-007
 -1.640000000000000E-002   -8.231574245557666E-007
 -1.630000000000000E-002   -9.609757391122774E-007
 -1.620000000000000E-002   -1.114850224449609E-006
 -1.610000000000000E-002   -1.285359510770973E-006
 -1.600000000000000E-002   -1.472910893896278E-006
 -1.590000000000000E-002   -1.677760573907165E-006
 -1.580000000000000E-002   -1.900046575580562E-006
 -1.570000000000000E-002   -2.139832248284719E-006
 -1.560000000000000E-002   -2.397157197735394E-006
 -1.550000000000000E-002   -2.672089735319678E-006
 -1.540000000000000E-002   -2.964777936098760E-006
 -1.530000000000000E-002   -3.275494433049002E-006
 -1.520000000000000E-002   -3.604671281968037E-006
 -1.510000000000000E-002   -3.952921022392923E-006
 -1.500000000000000E-002   -4.321044136862317E-006
 -1.490000000000000E-002   -4.710021942354988E-006
 -1.480000000000000E-002   -5.120996097875732E-006
 -1.470000000000000E-002   -5.555236827897161E-006
 -1.460000000000000E-002   -6.014104096472672E-006
 -1.450000000000000E-002   -6.499005755483503E-006
 -1.440000000000000E-002   -7.011356326472595E-006
 -1.430000000000000E-002   -7.552544112496871E-006
 -1.420000000000000E-002   -8.123903559987188E-006
 -1.410000000000000E-002   -8.726705231578545E-006
 -1.400000000000000E-002   -9.362156731874460E-006
 -1.390000000000000E-002   -1.003142278360018E-005
 -1.380000000000000E-002   -1.073565149327322E-005
 -1.370000000000000E-002   -1.147602322660509E-005
 -1.360000000000000E-002   -1.225379537384569E-005
 -1.350000000000000E-002   -1.307036072770357E-005
 -1.340000000000000E-002   -1.392729569093582E-005
 -1.330000000000000E-002   -1.482640880700147E-005
 -1.320000000000000E-002   -1.576977942874055E-005
 -1.310000000000000E-002   -1.675977731981727E-005
 -1.300000000000000E-002   -1.779907288923821E-005
 -1.290000000000000E-002   -1.889063121585354E-005
 -1.280000000000000E-002   -2.003768851483595E-005
 -1.270000000000000E-002   -2.124371703798249E-005
 -1.260000000000000E-002   -2.251238547044955E-005
 -1.250000000000000E-002   -2.384751160562179E-005
 -1.240000000000000E-002   -2.525302321732509E-005
 -1.230000000000000E-002   -2.673290968264599E-005
 -1.220000000000000E-002   -2.829120934639955E-005
 -1.210000000000000E-002   -2.993198855991871E-005
 -1.200000000000000E-002   -3.165934494237232E-005
 -1.190000000000000E-002   -3.347743457324671E-005
 -1.180000000000000E-002   -3.539050401354749E-005
 -1.170000000000000E-002   -3.740294049922484E-005
 -1.160000000000000E-002   -3.951933345099440E-005
 -1.150000000000000E-002   -4.174452669717085E-005
 -1.140000000000000E-002   -4.408368833727768E-005
 -1.130000000000000E-002   -4.654235246506070E-005
 -1.120000000000000E-002   -4.912647043828076E-005
 -1.110000000000000E-002   -5.184242330626260E-005
 -1.100000000000000E-002   -5.469703339080875E-005
 -1.090000000000000E-002   -5.769755485807932E-005
 -1.080000000000000E-002   -6.085164015081994E-005
 -1.070000000000000E-002   -6.416730535780863E-005
 -1.060000000000000E-002   -6.765288530666470E-005
 -1.050000000000000E-002   -7.131698501809811E-005
 -1.040000000000000E-002   -7.516843647024670E-005
 -1.030000000000000E-002   -7.921626718162864E-005
 -1.020000000000000E-002   -8.346969721420619E-005
 -1.010000000000000E-002   -8.793814613644853E-005
 -1.000000000000000E-002   -9.263125817609690E-005
 -9.899999999999999E-003   -9.755897683352810E-005
 -9.800000000000000E-003   -1.027316019334188E-004
 -9.699999999999999E-003   -1.081598795670316E-004
 -9.599999999999999E-003   -1.138551299989845E-004
 -9.500000000000000E-003   -1.198292964649425E-004
 -9.399999999999999E-003   -1.260950808317982E-004
 -9.299999999999999E-003   -1.326659810724370E-004
 -9.200000000000000E-003   -1.395563289861753E-004
 -9.099999999999999E-003   -1.467813421261694E-004
 -8.999999999999999E-003   -1.543570547438898E-004
 -8.900000000000000E-003   -1.623002970353306E-004
 -8.799999999999999E-003   -1.706286096012614E-004
 -8.699999999999999E-003   -1.793601390093169E-004
 -8.600000000000000E-003   -1.885134988672150E-004
 -8.499999999999999E-003   -1.981076798999696E-004
 -8.399999999999999E-003   -2.081619394824887E-004
 -8.300000000000000E-003   -2.186957079045598E-004
 -8.199999999999999E-003   -2.297285456275797E-004
 -8.100000000000000E-003   -2.412801361807201E-004
 -8.000000000000000E-003   -2.533703075558175E-004
 -7.899999999999999E-003   -2.660190808765791E-004
 -7.800000000000000E-003   -2.792468925327666E-004
 -7.699999999999999E-003   -2.930746387154365E-004
 -7.599999999999999E-003   -3.075239139306938E-004
 -7.499999999999999E-003   -3.226171447064991E-004
 -7.399999999999999E-003   -3.383778242631875E-004
 -7.299999999999999E-003   -3.548306584563610E-004
 -7.199999999999999E-003   -3.720016787135124E-004
 -7.100000000000000E-003   -3.899183238043385E-004
 -6.999999999999999E-003   -4.086093681700988E-004
 -6.899999999999999E-003   -4.281050699068392E-004
 -6.800000000000000E-003   -4.484369214802002E-004
 -6.699999999999999E-003   -4.696375950625249E-004
 -6.599999999999999E-003   -4.917407229395424E-004
 -6.499999999999999E-003   -5.147807771791143E-004
 -6.399999999999999E-003   -5.387927755190131E-004
 -6.299999999999999E-003   -5.638122082925612E-004
 -6.199999999999999E-003   -5.898748521398537E-004
 -6.100000000000000E-003   -6.170166390267706E-004
 -5.999999999999999E-003   -6.452736453088227E-004
 -5.899999999999999E-003   -6.746821567098877E-004
 -5.800000000000000E-003   -7.052786068221860E-004
 -5.699999999999999E-003   -7.370998713417030E-004
 -5.599999999999999E-003   -7.701833792930270E-004
 -5.499999999999999E-003   -8.045672360685595E-004
 -5.399999999999999E-003   -8.402905570125326E-004
 -5.299999999999999E-003   -8.773934652415040E-004
 -5.199999999999999E-003   -9.159175508537213E-004
 -5.099999999999999E-003   -9.559056111598353E-004
 -4.999999999999999E-003   -9.974018704030604E-004
 -4.899999999999999E-003   -1.040452231179829E-003
 -4.799999999999999E-003   -1.085103633980532E-003
 -4.699999999999999E-003   -1.131404329588605E-003
 -4.599999999999999E-003   -1.179403530614794E-003
 -4.499999999999999E-003   -1.229151358077490E-003
 -4.399999999999999E-003   -1.280698359578731E-003
 -4.299999999999999E-003   -1.334095352663870E-003
 -4.199999999999999E-003   -1.389393492610274E-003
 -4.099999999999999E-003   -1.446643794467937E-003
 -3.999999999999999E-003   -1.505897114352353E-003
 -3.899999999999999E-003   -1.567204172597245E-003
 -3.799999999999999E-003   -1.630615415371621E-003
 -3.699999999999999E-003   -1.696181487306127E-003
 -3.599999999999999E-003   -1.763952815357347E-003
 -3.499999999999999E-003   -1.833980233908872E-003
 -3.399999999999999E-003   -1.906314635574938E-003
 -3.299999999999999E-003   -1.981007263601121E-003
 -3.199999999999999E-003   -2.058110148801755E-003
 -3.099999999999999E-003   -2.137675594061529E-003
 -2.999999999999999E-003   -2.219756461600348E-003
 -2.899999999999999E-003   -2.304405856546402E-003
 -2.799999999999999E-003   -2.391677054979875E-003
 -2.699999999999999E-003   -2.481623123389904E-003
 -2.599999999999999E-003   -2.574296955623891E-003
 -2.499999999999999E-003   -2.669750456147448E-003
 -2.399999999999999E-003   -2.768034446634057E-003
 -2.299999999999999E-003   -2.869198796487009E-003
 -2.199999999999999E-003   -2.973291174142322E-003
 -2.099999999999999E-003   -3.080357743286443E-003
 -1.999999999999999E-003   -3.190442404614763E-003
 -1.899999999999999E-003   -3.303587249715055E-003
 -1.799999999999999E-003   -3.419831669013241E-003
 -1.699999999999999E-003   -3.539212982991067E-003
 -1.599999999999999E-003   -3.661766745374505E-003
 -1.499999999999999E-003   -3.787526127471220E-003
 -1.399999999999999E-003   -3.916522085851117E-003
 -1.299999999999999E-003   -4.048783721573504E-003
 -1.199999999999999E-003   -4.184337950007697E-003
 -1.099999999999999E-003   -4.323209672339971E-003
 -9.999999999999989E-004   -4.465420970066403E-003
 -8.999999999999990E-004   -4.610991553347475E-003
 -7.999999999999990E-004   -4.759938025063286E-003
 -6.999999999999989E-004   -4.912273599306781E-003
 -5.999999999999990E-004   -5.068007343020076E-003
 -4.999999999999989E-004   -5.227144104483271E-003
 -3.999999999999989E-004   -5.389683432462223E-003
 -2.999999999999989E-004   -5.555619334172887E-003
 -1.999999999999989E-004   -5.724940616705695E-003
 -9.999999999999892E-005   -5.897628902132084E-003
  1.084202172485504E-018   -6.073659782418652E-003
  1.000000000000011E-004   -6.253001569698859E-003
  2.000000000000011E-004   -6.435615662728479E-003
  3.000000000000011E-004   -6.621456852070415E-003
  4.000000000000011E-004   -6.810472003671676E-003
  5.000000000000011E-004   -7.002600933078064E-003
  6.000000000000011E-004   -7.197776040748546E-003
  7.000000000000011E-004   -7.395922581493816E-003
  8.000000000000011E-004   -7.596958015510251E-003
  9.000000000000012E-004   -7.800792018477548E-003
  1.000000000000001E-003   -8.007325988568235E-003
  1.100000000000001E-003   -8.216453383581972E-003
  1.200000000000001E-003   -8.428058067018242E-003
  1.300000000000001E-003   -8.642014097577729E-003
  1.400000000000001E-003   -8.858186273156257E-003
  1.500000000000001E-003   -9.076427289861241E-003
  1.600000000000001E-003   -9.296580085530198E-003
  1.700000000000001E-003   -9.518473409282387E-003
  1.800000000000001E-003   -9.741924287129132E-003
  1.900000000000001E-003   -9.966736219842761E-003
  2.000000000000001E-003   -1.019269843224603E-002
  2.100000000000001E-003   -1.041958646799074E-002
  2.200000000000001E-003   -1.064716016797935E-002
  2.300000000000001E-003   -1.087516581332941E-002
  2.400000000000001E-003   -1.110333384569844E-002
  2.500000000000001E-003   -1.133138038801023E-002
  2.600000000000001E-003   -1.155900517339062E-002
  2.700000000000001E-003   -1.178589227060990E-002
  2.800000000000001E-003   -1.201171067248789E-002
  2.900000000000001E-003   -1.223611341311150E-002
  3.000000000000001E-003   -1.245873573788382E-002
  3.100000000000001E-003   -1.267919948814132E-002
  3.200000000000001E-003   -1.289710698120915E-002
  3.300000000000001E-003   -1.311204271281851E-002
  3.400000000000001E-003   -1.332357432405007E-002
  3.500000000000001E-003   -1.353125008809968E-002
  3.600000000000001E-003   -1.373459958553510E-002
  3.700000000000001E-003   -1.393313099055561E-002
  3.800000000000001E-003   -1.412633303230177E-002
  3.900000000000001E-003   -1.431367350716350E-002
  4.000000000000001E-003   -1.449459746346955E-002
  4.100000000000001E-003   -1.466852929358889E-002
  4.200000000000001E-003   -1.483487016102016E-002
  4.300000000000001E-003   -1.499299985856038E-002
  4.400000000000001E-003   -1.514227263190528E-002
  4.500000000000001E-003   -1.528202321895782E-002
  4.600000000000002E-003   -1.541156291663645E-002
  4.700000000000001E-003   -1.553017769434051E-002
  4.800000000000001E-003   -1.563713327831471E-002
  4.900000000000002E-003   -1.573166983952623E-002
  5.000000000000001E-003   -1.581300678462836E-002
  5.100000000000001E-003   -1.588034017739032E-002
  5.200000000000001E-003   -1.593284094122161E-002
  5.300000000000002E-003   -1.596965836318709E-002
  5.400000000000001E-003   -1.598991716062558E-002
  5.500000000000001E-003   -1.599271769407937E-002
  5.600000000000002E-003   -1.597713688738632E-002
  5.700000000000001E-003   -1.594222735601393E-002
  5.800000000000001E-003   -1.588701483100928E-002
  5.900000000000002E-003   -1.581050304147516E-002
  6.000000000000001E-003   -1.571166949595212E-002
  6.100000000000001E-003   -1.558946791178680E-002
  6.200000000000002E-003   -1.544282508883776E-002
  6.300000000000002E-003   -1.527064511033383E-002
  6.400000000000001E-003   -1.507180553493887E-002
  6.500000000000001E-003   -1.484516323336303E-002
  6.600000000000002E-003   -1.458955033825880E-002
  6.700000000000001E-003   -1.430377484504859E-002
  6.800000000000001E-003   -1.398662486517230E-002
  6.900000000000002E-003   -1.363686440900979E-002
  7.000000000000001E-003   -1.325323788259302E-002
  7.100000000000001E-003   -1.283446992070794E-002
  7.200000000000002E-003   -1.237926395262385E-002
  7.300000000000002E-003   -1.188630569645371E-002
  7.400000000000001E-003   -1.135425973807312E-002
  7.500000000000001E-003   -1.078177478251860E-002
  7.600000000000002E-003   -1.016747985214076E-002
  7.700000000000001E-003   -9.509988681521461E-003
  7.800000000000001E-003   -8.807896875725181E-003
  7.900000000000001E-003   -8.059784594795926E-003
  8.000000000000002E-003   -7.264216467876569E-003
  8.100000000000001E-003   -6.419744342299208E-003
  8.200000000000001E-003   -5.524905393488166E-003
  8.300000000000002E-003   -4.578223480111562E-003
  8.400000000000001E-003   -3.578212886553815E-003
  8.500000000000002E-003   -2.523377091785906E-003
  8.600000000000002E-003   -1.412211449926301E-003
  8.700000000000001E-003   -2.432051003564860E-004
  8.800000000000002E-003    9.851603157037155E-004
  8.900000000000002E-003    2.274403135106847E-003
  9.000000000000001E-003    3.626048458885678E-003
  9.100000000000002E-003    5.041619825234045E-003
  9.200000000000002E-003    6.522640238377908E-003
  9.300000000000001E-003    8.070628404207216E-003
  9.400000000000002E-003    9.687101626969155E-003
  9.500000000000001E-003    1.137357158113687E-002
  9.600000000000001E-003    1.313153875620463E-002
  9.700000000000002E-003    1.496250074906630E-002
  9.800000000000001E-003    1.686794112930420E-002
  9.900000000000001E-003    1.884933488302548E-002
  1.000000000000000E-002    2.090813980277844E-002
  1.010000000000000E-002    2.304580187993943E-002
  1.020000000000000E-002    2.526374722477233E-002
  1.030000000000000E-002    2.756338721709673E-002
  1.040000000000000E-002    2.994610387223593E-002
  1.050000000000000E-002    3.241326470788040E-002
  1.060000000000000E-002    3.496620232108704E-002
  1.070000000000000E-002    3.760622181641126E-002
  1.080000000000000E-002    4.033460362359445E-002
  1.090000000000000E-002    4.315258616622730E-002
  1.100000000000000E-002    4.606137681597485E-002
  1.110000000000000E-002    4.906214248048303E-002
  1.120000000000000E-002    5.215600640273346E-002
  1.130000000000000E-002    5.534405248382787E-002
  1.140000000000000E-002    5.862732097176229E-002
  1.150000000000000E-002    6.200680052338525E-002
  1.160000000000000E-002    6.548343359044051E-002
  1.170000000000000E-002    6.905810506719853E-002
  1.180000000000000E-002    7.273165427111106E-002
  1.190000000000000E-002    7.650486055576693E-002
  1.200000000000000E-002    8.037843949094604E-002
  1.210000000000000E-002    8.435305824064279E-002
  1.220000000000000E-002    8.842931996505990E-002
  1.230000000000000E-002    9.260775292981760E-002
  1.240000000000000E-002    9.688881041284506E-002
  1.250000000000000E-002    0.101272901968097     
  1.260000000000000E-002    0.105760340013059     
  1.270000000000000E-002    0.110351365028619     
  1.280000000000000E-002    0.115046155863464     
  1.290000000000000E-002    0.119844774044514     
  1.300000000000000E-002    0.124747231196302     
  1.310000000000000E-002    0.129753434833872     
  1.320000000000000E-002    0.134863210580110     
  1.330000000000000E-002    0.140076289454528     
  1.340000000000000E-002    0.145392312968252     
  1.350000000000000E-002    0.150810831700800     
  1.360000000000000E-002    0.156331298285368     
  1.370000000000000E-002    0.161953057248276     
  1.380000000000000E-002    0.167675366710528     
  1.390000000000000E-002    0.173497381086469     
  1.400000000000000E-002    0.179418144663349     
  1.410000000000000E-002    0.185436604534402     
  1.420000000000000E-002    0.191551605823565     
  1.430000000000000E-002    0.197761864275189     
  1.440000000000000E-002    0.204066026006115     
  1.450000000000000E-002    0.210462580208360     
  1.460000000000000E-002    0.216949899296958     
  1.470000000000000E-002    0.223526295454510     
  1.480000000000000E-002    0.230189919843022     
  1.490000000000000E-002    0.236938823601159     
  1.500000000000000E-002    0.243770936163905     
  1.510000000000000E-002    0.250684057707369     
  1.520000000000000E-002    0.257675892555266     
  1.530000000000000E-002    0.264743983067190     
  1.540000000000000E-002    0.271885795562257     
  1.550000000000000E-002    0.279098691584733     
  1.560000000000000E-002    0.286379851127423     
  1.570000000000000E-002    0.293726353621964     
  1.580000000000000E-002    0.301135194226212     
  1.590000000000000E-002    0.308603190749662     
  1.600000000000000E-002    0.316127071541197     
  1.610000000000000E-002    0.323703465104989     
  1.620000000000000E-002    0.331328839948594     
  1.630000000000000E-002    0.338999562009640     
  1.640000000000000E-002    0.346711864574073     
  1.650000000000000E-002    0.354461888396298     
  1.660000000000000E-002    0.362245648048650     
  1.670000000000000E-002    0.370059055536823     
  1.680000000000000E-002    0.377897866892230     
  1.690000000000000E-002    0.385757746255344     
  1.700000000000000E-002    0.393634248780960     
  1.710000000000000E-002    0.401522840332934     
  1.720000000000000E-002    0.409418836545985     
  1.730000000000000E-002    0.417317480115827     
  1.740000000000000E-002    0.425213898771794     
  1.750000000000000E-002    0.433103066562103     
  1.760000000000000E-002    0.440979970839394     
  1.770000000000000E-002    0.448839404269351     
  1.780000000000000E-002    0.456676116880488     
  1.790000000000000E-002    0.464484737211852     
  1.800000000000000E-002    0.472259796877510     
  1.810000000000000E-002    0.479995773836413     
  1.820000000000000E-002    0.487687101636706     
  1.830000000000000E-002    0.495328030673034     
  1.840000000000000E-002    0.502912793579560     
  1.850000000000000E-002    0.510435581563936     
  1.860000000000000E-002    0.517890436281931     
  1.870000000000000E-002    0.525271444169488     