 -4.000000000000000E-002    0.000000000000000E+000
 -3.990000000000000E-002    0.000000000000000E+000
 -3.980000000000000E-002    0.000000000000000E+000
 -3.970000000000000E-002    0.000000000000000E+000
 -3.960000000000000E-002    0.000000000000000E+000
 -3.950000000000000E-002    0.000000000000000E+000
 -3.940000000000000E-002    0.000000000000000E+000
 -3.930000000000000E-002    0.000000000000000E+000
 -3.920000000000000E-002    0.000000000000000E+000
 -3.910000000000000E-002    0.000000000000000E+000
 -3.900000000000000E-002    0.000000000000000E+000
 -3.890000000000000E-002    0.000000000000000E+000
 -3.880000000000000E-002    0.000000000000000E+000
 -3.870000000000000E-002    0.000000000000000E+000
 -3.860000000000000E-002    0.000000000000000E+000
 -3.850000000000000E-002    0.000000000000000E+000
 -3.840000000000000E-002    0.000000000000000E+000
 -3.830000000000000E-002    0.000000000000000E+000
 -3.820000000000000E-002    0.000000000000000E+000
 -3.810000000000000E-002    0.000000000000000E+000
 -3.800000000000000E-002    0.000000000000000E+000
 -3.790000000000000E-002    0.000000000000000E+000
 -3.780000000000000E-002    0.000000000000000E+000
 -3.770000000000000E-002    0.000000000000000E+000
 -3.760000000000000E-002    0.000000000000000E+000
 -3.750000000000000E-002    0.000000000000000E+000
 -3.740000000000000E-002    0.000000000000000E+000
 -3.730000000000000E-002    0.000000000000000E+000
 -3.720000000000000E-002    0.000000000000000E+000
 -3.710000000000000E-002    0.000000000000000E+000
 -3.700000000000000E-002    0.000000000000000E+000
 -3.690000000000000E-002    0.000000000000000E+000
 -3.680000000000000E-002    0.000000000000000E+000
 -3.670000000000000E-002    0.000000000000000E+000
 -3.660000000000000E-002    0.000000000000000E+000
 -3.650000000000000E-002   -3.422000203061510E-048
 -3.640000000000000E-002   -3.831248169405853E-047
 -3.630000000000000E-002   -1.758136000260978E-046
 -3.620000000000000E-002   -5.684102998535842E-046
 -3.610000000000000E-002   -1.713849864497468E-045
 -3.600000000000000E-002   -4.306611735970423E-045
 -3.590000000000000E-002   -9.485238658441569E-045
 -3.580000000000000E-002   -2.216346312340429E-044
 -3.570000000000000E-002   -5.170332453152678E-044
 -3.560000000000000E-002   -1.161004260424505E-043
 -3.550000000000000E-002   -2.501205993053949E-043
 -3.540000000000000E-002   -5.129464200479046E-043
 -3.530000000000000E-002   -1.005208407076702E-042
 -3.520000000000000E-002   -1.881857769706202E-042
 -3.510000000000000E-002   -3.358730186689678E-042
 -3.500000000000000E-002   -5.694864358650872E-042
 -3.490000000000000E-002   -9.112790678553601E-042
 -3.480000000000000E-002   -1.359012565124608E-041
 -3.470000000000000E-002   -1.843397355027268E-041
 -3.460000000000000E-002   -2.148802582841482E-041
 -3.450000000000000E-002   -1.781721940159643E-041
 -3.440000000000000E-002    2.296955966505587E-042
 -3.430000000000000E-002    5.611109593624533E-041
 -3.420000000000000E-002    1.717040726736255E-040
 -3.410000000000000E-002    3.910638140270910E-040
 -3.400000000000000E-002    7.712798207376642E-040
 -3.390000000000000E-002    1.380763294709616E-039
 -3.380000000000000E-002    2.285447082839558E-039
 -3.370000000000000E-002    3.517655468759304E-039
 -3.360000000000000E-002    5.018178874744483E-039
 -3.350000000000000E-002    6.541095714971745E-039
 -3.340000000000000E-002    7.512716869844481E-039
 -3.330000000000000E-002    6.843200890945383E-039
 -3.320000000000000E-002    2.705131558056874E-039
 -3.310000000000000E-002   -7.678719224142930E-039
 -3.300000000000000E-002   -2.815298915028257E-038
 -3.290000000000000E-002   -6.350771309109452E-038
 -3.280000000000000E-002   -1.188994214358155E-037
 -3.270000000000000E-002   -1.985240683255546E-037
 -3.260000000000000E-002   -3.031974747068326E-037
 -3.250000000000000E-002   -4.265040498761828E-037
 -3.240000000000000E-002   -5.492918558539498E-037
 -3.230000000000000E-002   -6.325906029657828E-037
 -3.220000000000000E-002   -6.095854363982704E-037
 -3.210000000000000E-002   -3.781624971477860E-037
 -3.200000000000000E-002    2.032189337748379E-037
 -3.190000000000000E-002    1.312017581072971E-036
 -3.180000000000000E-002    3.144463007616083E-036
 -3.170000000000000E-002    5.877292457694879E-036
 -3.160000000000000E-002    9.600235912942384E-036
 -3.150000000000000E-002    1.421214042764456E-035
 -3.140000000000000E-002    1.927744832043920E-035
 -3.130000000000000E-002    2.384763424387977E-035
 -3.120000000000000E-002    2.626536070547585E-035
 -3.110000000000000E-002    2.398828275188484E-035
 -3.100000000000000E-002    1.349444488823565E-035
 -3.090000000000000E-002   -9.639789892798945E-036
 -3.080000000000000E-002   -5.036954897556001E-035
 -3.070000000000000E-002   -1.133780315043643E-034
 -3.060000000000000E-002   -2.016961519702127E-034
 -3.050000000000000E-002   -3.146317130759780E-034
 -3.040000000000000E-002   -4.449746923580723E-034
 -3.030000000000000E-002   -5.755927761059276E-034
 -3.020000000000000E-002   -6.757601999490175E-034
 -3.010000000000000E-002   -6.978785548675217E-034
 -3.000000000000000E-002   -5.756384324221996E-034
 -2.990000000000000E-002   -2.250997057898361E-034
 -2.980000000000000E-002    4.494328722260030E-034
 -2.970000000000000E-002    1.542607523101129E-033
 -2.960000000000000E-002    3.126201012773805E-033
 -2.950000000000000E-002    5.216701043654014E-033
 -2.940000000000000E-002    7.731941753831738E-033
 -2.930000000000000E-002    1.043855451337868E-032
 -2.920000000000000E-002    1.289513175045097E-032
 -2.910000000000000E-002    1.440020201756081E-032
 -2.900000000000000E-002    1.395911308790205E-032
 -2.890000000000000E-002    1.028928844182199E-032
 -2.880000000000000E-002    1.888094127418339E-033
 -2.870000000000000E-002   -1.280953386159033E-032
 -2.860000000000000E-002   -3.515729454369387E-032
 -2.850000000000000E-002   -6.588764508793923E-032
 -2.840000000000000E-002   -1.045602978319860E-031
 -2.830000000000000E-002   -1.488879699727519E-031
 -2.820000000000000E-002   -1.939936545774487E-031
 -2.810000000000000E-002   -2.316999605946378E-031
 -2.800000000000000E-002   -2.500057735135582E-031
 -2.790000000000000E-002   -2.329626228904550E-031
 -2.780000000000000E-002   -1.612144700162927E-031
 -2.770000000000000E-002   -1.349535458042678E-032
 -2.760000000000000E-002    2.306258973953406E-031
 -2.750000000000000E-002    5.865270379842214E-031
 -2.740000000000000E-002    1.058750574294804E-030
 -2.730000000000000E-002    1.633801758560472E-030
 -2.720000000000000E-002    2.272002990612533E-030
 -2.710000000000000E-002    2.899313838358209E-030
 -2.700000000000000E-002    3.400530914569142E-030
 -2.690000000000000E-002    3.615811129941522E-030
 -2.680000000000000E-002    3.342935630003994E-030
 -2.670000000000000E-002    2.348028759046527E-030
 -2.660000000000000E-002    3.874504866850154E-031
 -2.650000000000000E-002   -2.756907376090521E-030
 -2.640000000000000E-002   -7.227760825730200E-030
 -2.630000000000000E-002   -1.302872300088983E-029
 -2.620000000000000E-002   -1.995007013839350E-029
 -2.610000000000000E-002   -2.749075801640349E-029
 -2.600000000000000E-002   -3.478743250261631E-029
 -2.590000000000000E-002   -4.056535054484086E-029
 -2.580000000000000E-002   -4.312992432885775E-029
 -2.570000000000000E-002   -4.042011999373680E-029
 -2.560000000000000E-002   -3.014536381264537E-029
 -2.550000000000000E-002   -1.002471111825622E-029
 -2.540000000000000E-002    2.186018728894396E-029
 -2.530000000000000E-002    6.659908152749194E-029
 -2.520000000000000E-002    1.238926151389245E-028
 -2.510000000000000E-002    1.914388957290968E-028
 -2.500000000000000E-002    2.643355233398450E-028
 -2.490000000000000E-002    3.345938568934986E-028
 -2.480000000000000E-002    3.908880165136770E-028
 -2.470000000000000E-002    4.186806276313194E-028
 -2.460000000000000E-002    4.008718518426456E-028
 -2.450000000000000E-002    3.191055269143924E-028
 -2.440000000000000E-002    1.558257953103368E-028
 -2.430000000000000E-002   -1.028918939267551E-028
 -2.420000000000000E-002   -4.638143184905038E-028
 -2.410000000000000E-002   -9.225404416591169E-028
 -2.400000000000000E-002   -1.459376547812303E-027
 -2.390000000000000E-002   -2.035632036124286E-027
 -2.380000000000000E-002   -2.591028159807450E-027
 -2.370000000000000E-002   -3.043032622903563E-027
 -2.360000000000000E-002   -3.288982708976564E-027
 -2.350000000000000E-002   -3.211810884111287E-027
 -2.340000000000000E-002   -2.690002782778921E-027
 -2.330000000000000E-002   -1.612065257770562E-027
 -2.320000000000000E-002    1.047229168636427E-028
 -2.310000000000000E-002    2.492193620404279E-027
 -2.300000000000000E-002    5.507525635942540E-027
 -2.290000000000000E-002    9.010425920753285E-027
 -2.280000000000000E-002    1.274468194542390E-026
 -2.270000000000000E-002    1.632818500255345E-026
 -2.260000000000000E-002    1.925586656033427E-026
 -2.250000000000000E-002    2.091987680076786E-026
 -2.240000000000000E-002    2.065053718800017E-026
 -2.230000000000000E-002    1.778009864743878E-026
 -2.220000000000000E-002    1.172896987974259E-026
 -2.210000000000000E-002    2.110944764410958E-027
 -2.200000000000000E-002   -1.114978161768002E-026
 -2.190000000000000E-002   -2.770112482666043E-026
 -2.180000000000000E-002   -4.666044067842805E-026
 -2.170000000000000E-002   -6.654522364045875E-026
 -2.160000000000000E-002   -8.525758882700733E-026
 -2.150000000000000E-002   -1.001427377450597E-025
 -2.140000000000000E-002   -1.081385247118589E-025
 -2.130000000000000E-002   -1.060268323772878E-025
 -2.120000000000000E-002   -9.078760548511326E-026
 -2.110000000000000E-002   -6.004293557515835E-026
 -2.100000000000000E-002   -1.256266175344523E-026
 -2.090000000000000E-002    5.121456950295842E-026
 -2.080000000000000E-002    1.287075419440763E-025
 -2.070000000000000E-002    2.148427004773608E-025
 -2.060000000000000E-002    3.019129406977259E-025
 -2.050000000000000E-002    3.797288176074366E-025
 -2.040000000000000E-002    4.361333697464472E-025
 -2.030000000000000E-002    4.579264697784713E-025
 -2.020000000000000E-002    4.322044437026759E-025
 -2.010000000000000E-002    3.480681839770584E-025
 -2.000000000000000E-002    1.985905555800506E-025
 -1.990000000000000E-002   -1.713335038316362E-026
 -1.980000000000000E-002   -2.920925285207938E-025
 -1.970000000000000E-002   -6.099132327774063E-025
 -1.960000000000000E-002   -9.441761967703456E-025
 -1.950000000000000E-002   -1.258808202867695E-024
 -1.940000000000000E-002   -1.509809056234789E-024
 -1.930000000000000E-002   -1.648476395416606E-024
 -1.920000000000000E-002   -1.626144491909611E-024
 -1.910000000000000E-002   -1.400263188036279E-024
 -1.900000000000000E-002   -9.414217509828905E-025
 -1.890000000000000E-002   -2.406943921138597E-025
 -1.880000000000000E-002    6.835290294158208E-025
 -1.870000000000000E-002    1.780224070164036E-024
 -1.860000000000000E-002    2.963000047105989E-024
 -1.850000000000000E-002    4.110992035946232E-024
 -1.840000000000000E-002    5.074233892905621E-024
 -1.830000000000000E-002    5.684036122412328E-024
 -1.820000000000000E-002    5.768412753393401E-024
 -1.810000000000000E-002    5.171988979595795E-024
 -1.800000000000000E-002    3.779136173328023E-024
 -1.790000000000000E-002    1.538371164735600E-024
 -1.780000000000000E-002   -1.514577269095545E-024
 -1.770000000000000E-002   -5.238112560767441E-024
 -1.760000000000000E-002   -9.373824756022791E-024
 -1.750000000000000E-002   -1.354644217136224E-023
 -1.740000000000000E-002   -1.727735489807920E-023
 -1.730000000000000E-002   -2.001344086916873E-023
 -1.720000000000000E-002   -2.117157555639893E-023
 -1.710000000000000E-002   -2.019751657222889E-023
 -1.700000000000000E-002   -1.663591616039991E-023
 -1.690000000000000E-002   -1.020625229532123E-023
 -1.680000000000000E-002   -8.776105262268774E-025
 -1.670000000000000E-002    1.106619617595012E-023
 -1.660000000000000E-002    2.498055792125043E-023
 -1.650000000000000E-002    3.984246340957982E-023
 -1.640000000000000E-002    5.426983320533222E-023
 -1.630000000000000E-002    6.658422034849193E-023
 -1.620000000000000E-002    7.492014420945416E-023
 -1.610000000000000E-002    7.738020838283001E-023
 -1.600000000000000E-002    7.223008972678468E-023
 -1.590000000000000E-002    5.812210908005351E-023
 -1.580000000000000E-002    3.433048778864248E-023
 -1.570000000000000E-002    9.763578651404852E-025
 -1.560000000000000E-002   -4.078339263281676E-023
 -1.550000000000000E-002   -8.863166683911081E-023
 -1.540000000000000E-002   -1.390592369708374E-022
 -1.530000000000000E-002   -1.874506198300064E-022
 -1.520000000000000E-002   -2.283067365653997E-022
 -1.510000000000000E-002   -2.556134801755801E-022
 -1.500000000000000E-002   -2.633524585487582E-022
 -1.490000000000000E-002   -2.461337686300330E-022
 -1.480000000000000E-002   -1.999131213171477E-022
 -1.470000000000000E-002   -1.227367591424150E-022
 -1.460000000000000E-002   -1.544066244547303E-023
 -1.450000000000000E-002    1.177826434871750E-022
 -1.440000000000000E-002    2.690439728526449E-022
 -1.430000000000000E-002    4.267364395355148E-022
 -1.420000000000000E-002    5.759137166125945E-022
 -1.410000000000000E-002    6.991225867991808E-022
 -1.400000000000000E-002    7.777074071930910E-022
 -1.390000000000000E-002    7.935546003901446E-022
 -1.380000000000000E-002    7.311867871189129E-022
 -1.370000000000000E-002    5.800544101101399E-022
 -1.360000000000000E-002    3.368121594686278E-022
 -1.350000000000000E-002    7.318801869357269E-024
 -1.340000000000000E-002   -3.919320273468608E-022
 -1.330000000000000E-002   -8.332448228701758E-022
 -1.320000000000000E-002   -1.278282191863859E-021
 -1.310000000000000E-002   -1.679944259638515E-021
 -1.300000000000000E-002   -1.985650391481065E-021
 -1.290000000000000E-002   -2.141960874829204E-021
 -1.280000000000000E-002   -2.100307130033963E-021
 -1.270000000000000E-002   -1.823419671232365E-021
 -1.260000000000000E-002   -1.291873561653061E-021
 -1.250000000000000E-002   -5.100364079581873E-022
 -1.240000000000000E-002    4.893788712118153E-022
 -1.230000000000000E-002    1.642955643764556E-021
 -1.220000000000000E-002    2.857121304912323E-021
 -1.210000000000000E-002    4.012125296035004E-021
 -1.200000000000000E-002    4.969688430076702E-021
 -1.190000000000000E-002    5.584199972526092E-021
 -1.180000000000000E-002    5.716929323801467E-021
 -1.170000000000000E-002    5.252283236218807E-021
 -1.160000000000000E-002    4.114753037650951E-021
 -1.150000000000000E-002    2.284873398263431E-021
 -1.140000000000000E-002   -1.876624930613198E-022
 -1.130000000000000E-002   -3.175615875902223E-021
 -1.120000000000000E-002   -6.472243300126716E-021
 -1.110000000000000E-002   -9.797100196012276E-021
 -1.100000000000000E-002   -1.281037154596730E-020
 -1.090000000000000E-002   -1.513577721914223E-020
 -1.080000000000000E-002   -1.639127537892000E-020
 -1.070000000000000E-002   -1.622590032488319E-020
 -1.060000000000000E-002   -1.436026440414247E-020
 -1.050000000000000E-002   -1.062749509530952E-020
 -1.040000000000000E-002   -5.010851249766381E-021
 -1.030000000000000E-002    2.326030151678516E-021
 -1.020000000000000E-002    1.102031240953822E-020
 -1.010000000000000E-002    2.050626433640136E-020
 -1.000000000000000E-002    3.002969829318522E-020
 -9.899999999999999E-003    3.868250359748496E-020
 -9.800000000000000E-003    4.545785077712873E-020
 -9.699999999999999E-003    4.932494762612237E-020
 -9.599999999999999E-003    4.932038786016229E-020
 -9.500000000000000E-003    4.465106274789219E-020
 -9.399999999999999E-003    3.480160651193178E-020
 -9.299999999999999E-003    1.963752538958437E-020
 -9.200000000000000E-003   -5.063480514018540E-022
 -9.099999999999999E-003   -2.476328777114373E-020
 -8.999999999999999E-003   -5.170925449338976E-020
 -8.900000000000000E-003   -7.938483792784887E-020
 -8.799999999999999E-003   -1.053724788511616E-019
 -8.699999999999999E-003   -1.269332256729563E-019
 -8.600000000000000E-003   -1.412022737238971E-019
 -8.499999999999999E-003   -1.454364134605629E-019
 -8.399999999999999E-003   -1.372996215217385E-019
 -8.300000000000000E-003   -1.151660237661238E-019
 -8.199999999999999E-003   -7.841305831122502E-020
 -8.100000000000000E-003   -2.767294467730972E-020
 -8.000000000000000E-003    3.499174604444894E-020
 -7.899999999999999E-003    1.060215804592691E-019
 -7.800000000000000E-003    1.804307112775585E-019
 -7.699999999999999E-003    2.520328182700670E-019
 -7.599999999999999E-003    3.138276982668337E-019
 -7.499999999999999E-003    3.585367298898065E-019
 -7.399999999999999E-003    3.792570754114704E-019
 -7.299999999999999E-003    3.701860765939081E-019
 -7.199999999999999E-003    3.273511730340795E-019
 -7.100000000000000E-003    2.492694837013992E-019
 -6.999999999999999E-003    1.374574309089447E-019
 -6.899999999999999E-003   -3.285066263084460E-021
 -6.800000000000000E-003   -1.648764987804065E-019
 -6.699999999999999E-003   -3.362791765059424E-019
 -6.599999999999999E-003   -5.041541050605534E-019
 -6.499999999999999E-003   -6.538155166794275E-019
 -6.399999999999999E-003   -7.704178924195483E-019
 -6.299999999999999E-003   -8.402753564411211E-019
 -6.199999999999999E-003   -8.521885663026904E-019
 -6.100000000000000E-003   -7.986422310835900E-019
 -5.999999999999999E-003   -6.767403296107611E-019
 -5.899999999999999E-003   -4.887666220263667E-019
 -5.800000000000000E-003   -2.422949253874780E-019
 -5.699999999999999E-003    5.017715793566933E-020
 -5.599999999999999E-003    3.720408862065403E-019
 -5.499999999999999E-003    7.037504098712887E-019
 -5.399999999999999E-003    1.024224134032820E-018
 -5.299999999999999E-003    1.312310193768760E-018
 -5.199999999999999E-003    1.548142736079277E-018
 -5.099999999999999E-003    1.714234658334590E-018
 -4.999999999999999E-003    1.796195280498093E-018
 -4.899999999999999E-003    1.783027279269137E-018
 -4.799999999999999E-003    1.667038956366884E-018
 -4.699999999999999E-003    1.443486389989578E-018
 -4.599999999999999E-003    1.110134567996611E-018
 -4.499999999999999E-003    6.669695342180470E-019
 -4.399999999999999E-003    1.163026786774775E-019
 -4.299999999999999E-003   -5.365295439948652E-019
 -4.199999999999999E-003   -1.281754954296696E-018
 -4.099999999999999E-003   -2.103056608627986E-018
 -3.999999999999999E-003   -2.974942554983574E-018
 -3.899999999999999E-003   -3.859941603183286E-018
 -3.799999999999999E-003   -4.706139877138826E-018
 -3.699999999999999E-003   -5.445688118839245E-018
 -3.599999999999999E-003   -5.994973210741170E-018
 -3.499999999999999E-003   -6.257101087054643E-018
 -3.399999999999999E-003   -6.127206796144420E-018
 -3.299999999999999E-003   -5.500854814583447E-018
 -3.199999999999999E-003   -4.285439528896107E-018
 -3.099999999999999E-003   -2.414080124517229E-018
 -2.999999999999999E-003    1.389608867380237E-019
 -2.899999999999999E-003    3.342758106234477E-018
 -2.799999999999999E-003    7.095898862884271E-018
 -2.699999999999999E-003    1.121640418719411E-017
 -2.599999999999999E-003    1.543752364422151E-017
 -2.499999999999999E-003    1.941136177385965E-017
 -2.399999999999999E-003    2.272191293176505E-017
 -2.299999999999999E-003    2.490839365030260E-017
 -2.199999999999999E-003    2.549888708772993E-017
 -2.099999999999999E-003    2.405323332774254E-017
 -1.999999999999999E-003    2.021290298209912E-017
 -1.899999999999999E-003    1.375441256536301E-017
 -1.799999999999999E-003    4.641751822925432E-018
 -1.699999999999999E-003   -6.927542061946447E-018
 -1.599999999999999E-003   -2.048852340028291E-017
 -1.499999999999999E-003   -3.529302601332722E-017
 -1.399999999999999E-003   -5.031717655125718E-017
 -1.299999999999999E-003   -6.429634554537504E-017
 -1.199999999999999E-003   -7.578978435412924E-017
 -1.099999999999999E-003   -8.327488616576857E-017
 -9.999999999999989E-004   -8.526815328542583E-017
 -8.999999999999990E-004   -8.046686853750196E-017
 -7.999999999999990E-004   -6.790243488353244E-017
 -6.999999999999989E-004   -4.709341185600433E-017
 -5.999999999999990E-004   -1.818415546609029E-017
 -4.999999999999989E-004    1.794641914127926E-017
 -3.999999999999989E-004    5.962152128380064E-017
 -2.999999999999989E-004    1.043628780928876E-016
 -1.999999999999989E-004    1.489581484039978E-016
 -9.999999999999892E-005    1.896061975093043E-016
  1.084202172485504E-018    2.221411974175574E-016
  1.000000000000011E-004    2.423292815624182E-016
  2.000000000000011E-004    2.462239667047160E-016
  3.000000000000011E-004    2.305586280656976E-016
  4.000000000000011E-004    1.931473353011256E-016
  5.000000000000011E-004    1.332597579176842E-016
  6.000000000000011E-004    5.193260161711894E-017
  7.000000000000011E-004   -4.782041023400844E-017
  8.000000000000011E-004   -1.609348998048572E-016
  9.000000000000012E-004   -2.803867060256766E-016
  1.000000000000001E-003   -3.974651101904412E-016
  1.100000000000001E-003   -5.022327462966936E-016
  1.200000000000001E-003   -5.841609595659369E-016
  1.300000000000001E-003   -6.329120289435544E-016
  1.400000000000001E-003   -6.392229069831001E-016
  1.500000000000001E-003   -5.958306328563735E-016
  1.600000000000001E-003   -4.983665410310624E-016
  1.700000000000001E-003   -3.461410714188850E-016
  1.800000000000001E-003   -1.427382694219312E-016
  1.900000000000001E-003    1.036536947280276E-016
  2.000000000000001E-003    3.802380942086560E-016
  2.100000000000001E-003    6.699734623779043E-016
  2.200000000000001E-003    9.523230444047574E-016
  2.300000000000001E-003    1.204378355321748E-015
  2.400000000000001E-003    1.402314010651569E-015
  2.500000000000001E-003    1.523100319927194E-015
  2.600000000000001E-003    1.546372075916532E-015
  2.700000000000001E-003    1.456329408450289E-015
  2.800000000000001E-003    1.243530688326548E-015
  2.900000000000001E-003    9.064318384329072E-016
  3.000000000000001E-003    4.525295921424048E-016
  3.100000000000001E-003   -1.010181968707728E-016
  3.200000000000001E-003   -7.273989930195178E-016
  3.300000000000001E-003   -1.390847339758029E-015
  3.400000000000001E-003   -2.048069958968727E-015
  3.500000000000001E-003   -2.650376210095887E-015
  3.600000000000001E-003   -3.146445950023759E-015
  3.700000000000001E-003   -3.485620059785612E-015
  3.800000000000001E-003   -3.621550762436195E-015
  3.900000000000001E-003   -3.516011632962727E-015
  4.000000000000001E-003   -3.142633522518416E-015
  4.100000000000001E-003   -2.490312004286538E-015
  4.200000000000001E-003   -1.566023875674027E-015
  4.300000000000001E-003   -3.967942035560522E-016
  4.400000000000001E-003    9.694238167355508E-016
  4.500000000000001E-003    2.464157927949803E-015
  4.600000000000002E-003    4.000263608029867E-015
  4.700000000000001E-003    5.475289017196425E-015
  4.800000000000001E-003    6.776356020123404E-015
  4.900000000000002E-003    7.786455361874494E-015
  5.000000000000001E-003    8.391950651667625E-015
  5.100000000000001E-003    8.490972320799290E-015
  5.200000000000001E-003    8.002270329381707E-015
  5.300000000000002E-003    6.873993725720253E-015
  5.400000000000001E-003    5.091775817869871E-015
  5.500000000000001E-003    2.685448925509368E-015
  5.600000000000002E-003   -2.663122583560554E-016
  5.700000000000001E-003   -3.634093194132534E-015
  5.800000000000001E-003   -7.239181400313624E-015
  5.900000000000002E-003   -1.085880169011907E-014
  6.000000000000001E-003   -1.423539699165460E-014
  6.100000000000001E-003   -1.708994180232317E-014
  6.200000000000002E-003   -1.913897792688496E-014
  6.300000000000002E-003   -2.011470562807770E-014
  6.400000000000001E-003   -1.978711973796142E-014
  6.500000000000001E-003   -1.798685137236814E-014
  6.600000000000002E-003   -1.462706981263558E-014
  6.700000000000001E-003   -9.722616859558094E-015
  6.800000000000001E-003   -3.404434094820462E-015
  6.900000000000002E-003    4.072587040344667E-015
  7.000000000000001E-003    1.233000118638134E-014
  7.100000000000001E-003    2.087572145902473E-014
  7.200000000000002E-003    2.912416768997541E-014
  7.300000000000002E-003    3.642665008451932E-014
  7.400000000000001E-003    4.211118255718276E-014
  7.500000000000001E-003    4.553000017234965E-014
  7.600000000000002E-003    4.611220693720872E-014
  7.700000000000001E-003    4.341814997351940E-014
  7.800000000000001E-003    3.719147330069726E-014
  7.900000000000001E-003    2.740440791600853E-014
  8.000000000000002E-003    1.429174539924576E-014
  8.100000000000001E-003   -1.630782665986920E-015
  8.200000000000001E-003   -1.956735046659982E-014
  8.300000000000002E-003   -3.846467756040595E-014
  8.400000000000001E-003   -5.705763667669859E-014
  8.500000000000002E-003   -7.393729906668900E-014
  8.600000000000002E-003   -8.763903000399076E-014
  8.700000000000001E-003   -9.674629108306487E-014
  8.800000000000002E-003   -1.000040217964096E-013
  8.900000000000002E-003   -9.643391033227239E-014
  9.000000000000001E-003   -8.544274721567292E-014
  9.100000000000002E-003   -6.691458759440883E-014
  9.200000000000002E-003   -4.127750031902629E-014
  9.300000000000001E-003   -9.536758611177295E-015
  9.400000000000002E-003    2.673207870061035E-014
  9.500000000000001E-003    6.543426051615508E-014
  9.600000000000001E-003    1.040521753344862E-013
  9.700000000000002E-003    1.397845139820849E-013
  9.800000000000001E-003    1.697222676766723E-013
  9.900000000000001E-003    1.910520632203089E-013
  1.000000000000000E-002    2.012741031519664E-013
  1.010000000000000E-002    1.984197171956559E-013
  1.020000000000000E-002    1.812519261861524E-013
  1.030000000000000E-002    1.494321896909667E-013
  1.040000000000000E-002    1.036374256254522E-013
  1.050000000000000E-002    4.561379854851874E-014
  1.060000000000000E-002   -2.184268962723018E-014
  1.070000000000000E-002   -9.498411315222635E-014
  1.080000000000000E-002   -1.692868194939707E-013
  1.090000000000000E-002   -2.396998385022781E-013
  1.100000000000000E-002   -3.009534874007058E-013
  1.110000000000000E-002   -3.479108024296881E-013
  1.120000000000000E-002   -3.759398052652795E-013
  1.130000000000000E-002   -3.812814763910227E-013
  1.140000000000000E-002   -3.613869041025151E-013
  1.150000000000000E-002   -3.151972758776342E-013
  1.160000000000000E-002   -2.433428286811917E-013
  1.170000000000000E-002   -1.482411269105305E-013
  1.180000000000000E-002   -3.408077531223884E-014
  1.190000000000000E-002    9.331591681493916E-014
  1.200000000000000E-002    2.267499916943709E-013
  1.210000000000000E-002    3.580128308341153E-013
  1.220000000000000E-002    4.783455104033781E-013
  1.230000000000000E-002    5.789657587141038E-013
  1.240000000000000E-002    6.516320909055625E-013
  1.250000000000000E-002    6.892113062009581E-013
  1.260000000000000E-002    6.862131422083835E-013
  1.270000000000000E-002    6.392573800215542E-013
  1.280000000000000E-002    5.474407900223060E-013
  1.290000000000000E-002    4.125766267856200E-013
  1.300000000000000E-002    2.392858426316707E-013
  1.310000000000000E-002    3.492689757285771E-014
  1.320000000000000E-002   -1.906399498987548E-013
  1.330000000000000E-002   -4.254493344656572E-013
  1.340000000000000E-002   -6.559750229888502E-013
  1.350000000000000E-002   -8.678001185738438E-013
  1.360000000000000E-002   -1.046384492149535E-012
  1.370000000000000E-002   -1.177894779906152E-012
  1.380000000000000E-002   -1.250057571647732E-012
  1.390000000000000E-002   -1.252993656159850E-012
  1.400000000000000E-002   -1.179989060369850E-012
  1.410000000000000E-002   -1.028159224848238E-012
  1.420000000000000E-002   -7.989633345023659E-013
  1.430000000000000E-002   -4.985303149872958E-013
  1.440000000000000E-002   -1.377611757140817E-013
  1.450000000000000E-002    2.678195530916772E-013
  1.460000000000000E-002    6.984825611885000E-013
  1.470000000000000E-002    1.130990820213622E-012
  1.480000000000000E-002    1.539570287004113E-012
  1.490000000000000E-002    1.897134996364690E-012
  1.500000000000000E-002    2.176729977258833E-012
  1.510000000000000E-002    2.353139178522925E-012
  1.520000000000000E-002    2.404585893171917E-012
  1.530000000000000E-002    2.314439309727740E-012
  1.540000000000000E-002    2.072822827741370E-012
  1.550000000000000E-002    1.678014575767076E-012
  1.560000000000000E-002    1.137520785051091E-012
  1.570000000000000E-002    4.687103891679063E-013
  1.580000000000000E-002   -3.010924854065539E-013
  1.590000000000000E-002   -1.135139268019025E-012
  1.600000000000000E-002   -1.988462433912125E-012
  1.610000000000000E-002   -2.809767479260323E-012
  1.620000000000000E-002   -3.543978471078515E-012
  1.630000000000000E-002   -4.135350606923433E-012
  1.640000000000000E-002   -4.531014937015725E-012
  1.650000000000000E-002   -4.684763723520607E-012
  1.660000000000000E-002   -4.560851490358517E-012
  1.670000000000000E-002   -4.137542020703178E-012
  1.680000000000000E-002   -3.410129382935941E-012
  1.690000000000000E-002   -2.393150756429093E-012
  1.700000000000000E-002   -1.121541852009184E-012
  1.710000000000000E-002    3.494727984596777E-013
  1.720000000000000E-002    1.945893095265246E-012
  1.730000000000000E-002    3.577912324028014E-012
  1.740000000000000E-002    5.144293040144481E-012
  1.750000000000000E-002    6.537992684286788E-012
  1.760000000000000E-002    7.652772906472133E-012
  1.770000000000000E-002    8.390424482990639E-012
  1.780000000000000E-002    8.668159199762082E-012
  1.790000000000000E-002    8.425657577968814E-012
  1.800000000000000E-002    7.631239080390060E-012
  1.810000000000000E-002    6.286633664509622E-012
  1.820000000000000E-002    4.429883988307726E-012
  1.830000000000000E-002    2.136001733261312E-012
  1.840000000000000E-002   -4.848676475378555E-013
  1.850000000000000E-002   -3.291860952308978E-012
  1.860000000000000E-002   -6.120300087011241E-012
  1.870000000000000E-002   -8.790803082052629E-012