 -4.000000000000000E-002    0.000000000000000E+000
 -3.990000000000000E-002    0.000000000000000E+000
 -3.980000000000000E-002    0.000000000000000E+000
 -3.970000000000000E-002    0.000000000000000E+000
 -3.960000000000000E-002    0.000000000000000E+000
 -3.950000000000000E-002    0.000000000000000E+000
 -3.940000000000000E-002    0.000000000000000E+000
 -3.930000000000000E-002    0.000000000000000E+000
 -3.920000000000000E-002    0.000000000000000E+000
 -3.910000000000000E-002    0.000000000000000E+000
 -3.900000000000000E-002    0.000000000000000E+000
 -3.890000000000000E-002    0.000000000000000E+000
 -3.880000000000000E-002    0.000000000000000E+000
 -3.870000000000000E-002    0.000000000000000E+000
 -3.860000000000000E-002    0.000000000000000E+000
 -3.850000000000000E-002    0.000000000000000E+000
 -3.840000000000000E-002    0.000000000000000E+000
 -3.830000000000000E-002    0.000000000000000E+000
 -3.820000000000000E-002    0.000000000000000E+000
 -3.810000000000000E-002    0.000000000000000E+000
 -3.800000000000000E-002    0.000000000000000E+000
 -3.790000000000000E-002    0.000000000000000E+000
 -3.780000000000000E-002    0.000000000000000E+000
 -3.770000000000000E-002    0.000000000000000E+000
 -3.760000000000000E-002    0.000000000000000E+000
 -3.750000000000000E-002    0.000000000000000E+000
 -3.740000000000000E-002    0.000000000000000E+000
 -3.730000000000000E-002    0.000000000000000E+000
 -3.720000000000000E-002    0.000000000000000E+000
 -3.710000000000000E-002    2.075545703386467E-047
 -3.700000000000000E-002    1.790470308844716E-047
 -3.690000000000000E-002    3.969221140671614E-047
 -3.680000000000000E-002   -3.225305382446240E-047
 -3.670000000000000E-002   -3.029456719271962E-046
 -3.660000000000000E-002   -6.092456853461046E-046
 -3.650000000000000E-002   -1.973130931305992E-045
 -3.640000000000000E-002   -7.372510139640922E-045
 -3.630000000000000E-002   -2.261279475330090E-044
 -3.620000000000000E-002   -6.636289250838847E-044
 -3.610000000000000E-002   -1.805836196603730E-043
 -3.600000000000000E-002   -4.541313374018161E-043
 -3.590000000000000E-002   -1.067372656240332E-042
 -3.580000000000000E-002   -2.356863823132436E-042
 -3.570000000000000E-002   -4.900481712073447E-042
 -3.560000000000000E-002   -9.591646640467691E-042
 -3.550000000000000E-002   -1.760723560879416E-041
 -3.540000000000000E-002   -3.005135723753467E-041
 -3.530000000000000E-002   -4.683109829135789E-041
 -3.520000000000000E-002   -6.397457766986014E-041
 -3.510000000000000E-002   -6.808468966446533E-041
 -3.500000000000000E-002   -2.604852445459339E-041
 -3.490000000000000E-002    1.324010157384474E-040
 -3.480000000000000E-002    5.416002737269542E-040
 -3.470000000000000E-002    1.437267557969278E-039
 -3.460000000000000E-002    3.200888946574997E-039
 -3.450000000000000E-002    6.398801484594409E-039
 -3.440000000000000E-002    1.178702086349066E-038
 -3.430000000000000E-002    2.022605570595642E-038
 -3.420000000000000E-002    3.241098451973414E-038
 -3.410000000000000E-002    4.827196478085983E-038
 -3.400000000000000E-002    6.584607769207088E-038
 -3.390000000000000E-002    7.938067516761726E-038
 -3.380000000000000E-002    7.643366014092758E-038
 -3.370000000000000E-002    3.384302899828293E-038
 -3.360000000000000E-002   -8.727628282175864E-038
 -3.350000000000000E-002   -3.467840108784069E-037
 -3.340000000000000E-002   -8.293331792253004E-037
 -3.330000000000000E-002   -1.643633861062741E-036
 -3.320000000000000E-002   -2.912096989857683E-036
 -3.310000000000000E-002   -4.743465029950537E-036
 -3.300000000000000E-002   -7.178715996598198E-036
 -3.290000000000000E-002   -1.009894600347938E-035
 -3.280000000000000E-002   -1.308436896317181E-035
 -3.270000000000000E-002   -1.521784053257298E-035
 -3.260000000000000E-002   -1.483676598384297E-035
 -3.250000000000000E-002   -9.256675542032956E-036
 -3.240000000000000E-002    5.479341676058830E-036
 -3.230000000000000E-002    3.472719840141610E-035
 -3.220000000000000E-002    8.508988087679253E-035
 -3.210000000000000E-002    1.637687887147828E-034
 -3.200000000000000E-002    2.771397352788904E-034
 -3.190000000000000E-002    4.282365109805807E-034
 -3.180000000000000E-002    6.128388153112817E-034
 -3.170000000000000E-002    8.139618319515874E-034
 -3.160000000000000E-002    9.947841020775010E-034
 -3.150000000000000E-002    1.090468414412755E-033
 -3.140000000000000E-002    9.999732761258092E-034
 -3.130000000000000E-002    5.798304962346145E-034
 -3.120000000000000E-002   -3.570523077732180E-034
 -3.110000000000000E-002   -2.033323449609285E-033
 -3.100000000000000E-002   -4.684512646154475E-033
 -3.090000000000000E-002   -8.515748706758879E-033
 -3.080000000000000E-002   -1.363202858373415E-032
 -3.070000000000000E-002   -1.993782505311942E-032
 -3.060000000000000E-002   -2.700542071650154E-032
 -3.050000000000000E-002   -3.391770626869437E-032
 -3.040000000000000E-002   -3.910042075840666E-032
 -3.030000000000000E-002   -4.017142472980469E-032
 -3.020000000000000E-002   -3.384948803472887E-032
 -3.010000000000000E-002   -1.598137486248432E-032
 -3.000000000000000E-002    1.823943318929984E-032
 -2.990000000000000E-002    7.377937540446257E-032
 -2.980000000000000E-002    1.549149574341400E-031
 -2.970000000000000E-002    2.639614941435808E-031
 -2.960000000000000E-002    3.995561468039666E-031
 -2.950000000000000E-002    5.545398444797112E-031
 -2.940000000000000E-002    7.135833963112288E-031
 -2.930000000000000E-002    8.508361627546468E-031
 -2.920000000000000E-002    9.280361041563485E-031
 -2.910000000000000E-002    8.936857570312382E-031
 -2.900000000000000E-002    6.840582260720002E-031
 -2.890000000000000E-002    2.268999231975783E-031
 -2.880000000000000E-002   -5.512887920003252E-031
 -2.870000000000000E-002   -1.713650213668451E-030
 -2.860000000000000E-002   -3.296624893476964E-030
 -2.850000000000000E-002   -5.289037377625698E-030
 -2.840000000000000E-002   -7.607609873033564E-030
 -2.830000000000000E-002   -1.007103369481607E-029
 -2.820000000000000E-002   -1.237602198956692E-029
 -2.810000000000000E-002   -1.408018816060051E-029
 -2.800000000000000E-002   -1.459790466519337E-029
 -2.790000000000000E-002   -1.321624717927778E-029
 -2.780000000000000E-002   -9.138460547387774E-030
 -2.770000000000000E-002   -1.561542095520246E-030
 -2.760000000000000E-002    1.020742289276990E-029
 -2.750000000000000E-002    2.659551954778978E-029
 -2.740000000000000E-002    4.757370284199157E-029
 -2.730000000000000E-002    7.244424156551655E-029
 -2.720000000000000E-002    9.962704026471719E-029
 -2.710000000000000E-002    1.264754448564918E-028
 -2.700000000000000E-002    1.491611641313535E-028
 -2.690000000000000E-002    1.626752637662911E-028
 -2.680000000000000E-002    1.609947148205430E-028
 -2.670000000000000E-002    1.374620656716921E-028
 -2.660000000000000E-002    8.541429624813366E-029
 -2.650000000000000E-002   -9.231402934676164E-031
 -2.640000000000000E-002   -1.252911942545313E-028
 -2.630000000000000E-002   -2.880572130321594E-028
 -2.620000000000000E-002   -4.847846684704421E-028
 -2.610000000000000E-002   -7.048703329420552E-028
 -2.600000000000000E-002   -9.304598473245604E-028
 -2.590000000000000E-002   -1.135894578436558E-027
 -2.580000000000000E-002   -1.287966773324753E-027
 -2.570000000000000E-002   -1.347253684354021E-027
 -2.560000000000000E-002   -1.270759307529397E-027
 -2.550000000000000E-002   -1.016000274441891E-027
 -2.540000000000000E-002   -5.465230310205374E-028
 -2.530000000000000E-002    1.613433996834481E-028
 -2.520000000000000E-002    1.110941653863879E-027
 -2.510000000000000E-002    2.277647082670189E-027
 -2.500000000000000E-002    3.602094379249001E-027
 -2.490000000000000E-002    4.985455376487249E-027
 -2.480000000000000E-002    6.288087506865578E-027
 -2.470000000000000E-002    7.332896930784474E-027
 -2.460000000000000E-002    7.914588797591605E-027
 -2.450000000000000E-002    7.815612868884854E-027
 -2.440000000000000E-002    6.829001161788219E-027
 -2.430000000000000E-002    4.787444020503697E-027
 -2.420000000000000E-002    1.596910367192256E-027
 -2.410000000000000E-002   -2.728041942633944E-027
 -2.400000000000000E-002   -8.031382784112394E-027
 -2.390000000000000E-002   -1.399019989244392E-026
 -2.380000000000000E-002   -2.010268517971993E-026
 -2.370000000000000E-002   -2.569553086858664E-026
 -2.360000000000000E-002   -2.995623193134117E-026
 -2.350000000000000E-002   -3.199424987337274E-026
 -2.340000000000000E-002   -3.093261833742551E-026
 -2.330000000000000E-002   -2.602766649714455E-026
 -2.320000000000000E-002   -1.681032397551209E-026
 -2.310000000000000E-002   -3.237078770723857E-027
 -2.300000000000000E-002    1.416678651940116E-026
 -2.290000000000000E-002    3.419358910818994E-026
 -2.280000000000000E-002    5.489509178871007E-026
 -2.270000000000000E-002    7.360659415743566E-026
 -2.260000000000000E-002    8.707810855114285E-026
 -2.250000000000000E-002    9.173138273734344E-026
 -2.240000000000000E-002    8.405087930718455E-026
 -2.230000000000000E-002    6.110096661875825E-026
 -2.220000000000000E-002    2.114202396451095E-026
 -2.210000000000000E-002   -3.570482429603640E-026
 -2.200000000000000E-002   -1.068181806476183E-025
 -2.190000000000000E-002   -1.865586626419640E-025
 -2.180000000000000E-002   -2.659845611085379E-025
 -2.170000000000000E-002   -3.329203215191963E-025
 -2.160000000000000E-002   -3.724891853454336E-025
 -2.150000000000000E-002   -3.681966135743882E-025
 -2.140000000000000E-002   -3.036074970031638E-025
 -2.130000000000000E-002   -1.645956310475058E-025
 -2.120000000000000E-002    5.794316826173217E-026
 -2.110000000000000E-002    3.651090396336554E-025
 -2.100000000000000E-002    7.470544616742177E-025
 -2.090000000000000E-002    1.180467605959275E-024
 -2.080000000000000E-002    1.626947848016149E-024
 -2.070000000000000E-002    2.032767623619487E-024
 -2.060000000000000E-002    2.330491399985429E-024
 -2.050000000000000E-002    2.442836908107530E-024
 -2.040000000000000E-002    2.288991790907291E-024
 -2.030000000000000E-002    1.793363184904362E-024
 -2.020000000000000E-002    8.964162431177704E-025
 -2.010000000000000E-002   -4.330799470569190E-025
 -2.000000000000000E-002   -2.185472092023293E-024
 -1.990000000000000E-002   -4.298734516924962E-024
 -1.980000000000000E-002   -6.649730504527478E-024
 -1.970000000000000E-002   -9.050067837594583E-024
 -1.960000000000000E-002   -1.124830584409037E-023
 -1.950000000000000E-002   -1.294003820584083E-023
 -1.940000000000000E-002   -1.378679312355320E-023
 -1.930000000000000E-002   -1.344400677776680E-023
 -1.920000000000000E-002   -1.159725427889885E-023
 -1.910000000000000E-002   -8.004781164933938E-024
 -1.900000000000000E-002   -2.543229048086073E-024
 -1.890000000000000E-002    4.747750466659581E-024
 -1.880000000000000E-002    1.362725799018219E-023
 -1.870000000000000E-002    2.362701844992019E-023
 -1.860000000000000E-002    3.404317346872613E-023
 -1.850000000000000E-002    4.395122767083338E-023
 -1.840000000000000E-002    5.224806644348640E-023
 -1.830000000000000E-002    5.772277362114842E-023
 -1.820000000000000E-002    5.915550213413634E-023
 -1.810000000000000E-002    5.544029437600104E-023
 -1.800000000000000E-002    4.572409162127686E-023
 -1.790000000000000E-002    2.955122984635997E-023
 -1.780000000000000E-002    6.999064076002644E-024
 -1.770000000000000E-002   -2.121139604977354E-023
 -1.760000000000000E-002   -5.364708409933727E-023
 -1.750000000000000E-002   -8.815328276842806E-023
 -1.740000000000000E-002   -1.219169590508187E-022
 -1.730000000000000E-002   -1.516123145283335E-022
 -1.720000000000000E-002   -1.736316849946817E-022
 -1.710000000000000E-002   -1.843960164253453E-022
 -1.700000000000000E-002   -1.807296292890055E-022
 -1.690000000000000E-002   -1.602738142466414E-022
 -1.680000000000000E-002   -1.219030615298070E-022
 -1.670000000000000E-002   -6.609950264919998E-023
 -1.660000000000000E-002    4.764491437372910E-024
 -1.650000000000000E-002    8.628843714957156E-023
 -1.640000000000000E-002    1.720990354468745E-022
 -1.630000000000000E-002    2.541378465071930E-022
 -1.620000000000000E-002    3.232041066929474E-022
 -1.610000000000000E-002    3.697511984218748E-022
 -1.600000000000000E-002    3.849057706653748E-022
 -1.590000000000000E-002    3.616472665165803E-022
 -1.580000000000000E-002    2.960453643348751E-022
 -1.570000000000000E-002    1.884277096836966E-022
 -1.560000000000000E-002    4.431719914761897E-023
 -1.550000000000000E-002   -1.250284394606796E-022
 -1.540000000000000E-002   -3.026420096853370E-022
 -1.530000000000000E-002   -4.665776043904021E-022
 -1.520000000000000E-002   -5.914366795965186E-022
 -1.510000000000000E-002   -6.507084130583484E-022
 -1.500000000000000E-002   -6.198429383725876E-022
 -1.490000000000000E-002   -4.798719602461464E-022
 -1.480000000000000E-002   -2.212659308667584E-022
 -1.470000000000000E-002    1.523793475684879E-022
 -1.460000000000000E-002    6.213325711966466E-022
 -1.450000000000000E-002    1.147927541035359E-021
 -1.440000000000000E-002    1.676508327603748E-021
 -1.430000000000000E-002    2.135564423118296E-021
 -1.420000000000000E-002    2.442344037217896E-021
 -1.410000000000000E-002    2.510006569306501E-021
 -1.400000000000000E-002    2.257076809894165E-021
 -1.390000000000000E-002    1.618633883924749E-021
 -1.380000000000000E-002    5.583233625659421E-022
 -1.370000000000000E-002   -9.200264158150639E-022
 -1.360000000000000E-002   -2.762630367441117E-021
 -1.350000000000000E-002   -4.859376633724442E-021
 -1.340000000000000E-002   -7.042364601728618E-021
 -1.330000000000000E-002   -9.090611164601903E-021
 -1.320000000000000E-002   -1.074175674399151E-020
 -1.310000000000000E-002   -1.171097750300930E-020
 -1.300000000000000E-002   -1.171655009885279E-020
 -1.290000000000000E-002   -1.051065303387103E-020
 -1.280000000000000E-002   -7.913183455091373E-021
 -1.270000000000000E-002   -3.845569153862764E-021
 -1.260000000000000E-002    1.638968858493349E-021
 -1.250000000000000E-002    8.332523730865300E-021
 -1.240000000000000E-002    1.586071868254136E-020
 -1.230000000000000E-002    2.368526584067487E-020
 -1.220000000000000E-002    3.112323841160994E-020
 -1.210000000000000E-002    3.738411642490567E-020
 -1.200000000000000E-002    4.162416710397588E-020
 -1.190000000000000E-002    4.301599056395995E-020
 -1.180000000000000E-002    4.082920755554807E-020
 -1.170000000000000E-002    3.451690779443247E-020
 -1.160000000000000E-002    2.380075349790079E-020
 -1.150000000000000E-002    8.747088210499149E-021
 -1.140000000000000E-002   -1.017420842609250E-020
 -1.130000000000000E-002   -3.205604721898364E-020
 -1.120000000000000E-002   -5.555274003108552E-020
 -1.110000000000000E-002   -7.891634754296466E-020
 -1.100000000000000E-002   -1.000741923561112E-019
 -1.090000000000000E-002   -1.167480344810469E-019
 -1.080000000000000E-002   -1.266128079665469E-019
 -1.070000000000000E-002   -1.274883505547717E-019
 -1.060000000000000E-002   -1.175552498418296E-019
 -1.050000000000000E-002   -9.558086410644181E-020
 -1.040000000000000E-002   -6.113948073647913E-020
 -1.030000000000000E-002   -1.480680054011398E-020
 -1.020000000000000E-002    4.169265412106033E-020
 -1.010000000000000E-002    1.054072342609756E-019
 -1.000000000000000E-002    1.721703719115730E-019
 -9.899999999999999E-003    2.367213337277769E-019
 -9.800000000000000E-003    2.929473132840486E-019
 -9.699999999999999E-003    3.342515365623686E-019
 -9.599999999999999E-003    3.540417688483510E-019
 -9.500000000000000E-003    3.463205666405664E-019
 -9.399999999999999E-003    3.063453139499864E-019
 -9.299999999999999E-003    2.313113954921536E-019
 -9.200000000000000E-003    1.209995085525389E-019
 -9.099999999999999E-003   -2.168223594532918E-020
 -8.999999999999999E-003   -1.903344549301285E-019
 -8.900000000000000E-003   -3.749532287602124E-019
 -8.799999999999999E-003   -5.621290172237270E-019
 -8.699999999999999E-003   -7.356013416828324E-019
 -8.600000000000000E-003   -8.771864037605892E-019
 -8.499999999999999E-003   -9.680588291216240E-019
 -8.399999999999999E-003   -9.903338746362113E-019
 -8.300000000000000E-003   -9.288523303636011E-019
 -8.199999999999999E-003   -7.730377113473084E-019
 -8.100000000000000E-003   -5.186622397681858E-019
 -8.000000000000000E-003   -1.693441993359123E-019
 -7.899999999999999E-003    2.624051727939000E-019
 -7.800000000000000E-003    7.547498785858694E-019
 -7.699999999999999E-003    1.276841774795633E-018
 -7.599999999999999E-003    1.789957268927976E-018
 -7.499999999999999E-003    2.249470732201431E-018
 -7.399999999999999E-003    2.607606302540692E-018
 -7.299999999999999E-003    2.816835086413471E-018
 -7.199999999999999E-003    2.833716488106860E-018
 -7.100000000000000E-003    2.622930168983508E-018
 -6.999999999999999E-003    2.161207221001809E-018
 -6.899999999999999E-003    1.440859774199629E-018
 -6.800000000000000E-003    4.726141340092478E-019
 -6.699999999999999E-003   -7.125063136464426E-019
 -6.599999999999999E-003   -2.062459760248195E-018
 -6.499999999999999E-003   -3.504770683706723E-018
 -6.399999999999999E-003   -4.948501652159190E-018
 -6.299999999999999E-003   -6.287626180470053E-018
 -6.199999999999999E-003   -7.405762995812699E-018
 -6.100000000000000E-003   -8.182172748763444E-018
 -5.999999999999999E-003   -8.498891229076258E-018
 -5.899999999999999E-003   -8.248807234203076E-018
 -5.800000000000000E-003   -7.344467520229544E-018
 -5.699999999999999E-003   -5.727299974630959E-018
 -5.599999999999999E-003   -3.376884014493088E-018
 -5.499999999999999E-003   -3.197665346383949E-019
 -5.399999999999999E-003    3.362808391549739E-018
 -5.299999999999999E-003    7.529030139631594E-018
 -5.199999999999999E-003    1.197341748736254E-017
 -5.099999999999999E-003    1.642748474963326E-017
 -4.999999999999999E-003    2.056519741737553E-017
 -4.899999999999999E-003    2.401415186919566E-017
 -4.799999999999999E-003    2.637317113466055E-017
 -4.699999999999999E-003    2.723661615150260E-017
 -4.599999999999999E-003    2.622516931936539E-017
 -4.499999999999999E-003    2.302207227423849E-017
 -4.399999999999999E-003    1.741305805985827E-017
 -4.299999999999999E-003    9.327276905981652E-018
 -4.199999999999999E-003   -1.124280447284241E-018
 -4.099999999999999E-003   -1.361698988522893E-017
 -3.999999999999999E-003   -2.759197842488763E-017
 -3.899999999999999E-003   -4.225123633207155E-017
 -3.799999999999999E-003   -5.657253045550941E-017
 -3.699999999999999E-003   -6.934721498032793E-017
 -3.599999999999999E-003   -7.924254988034418E-017
 -3.499999999999999E-003   -8.488808321250916E-017
 -3.399999999999999E-003   -8.498338697562031E-017
 -3.299999999999999E-003   -7.842180571453806E-017
 -3.199999999999999E-003   -6.442235944608388E-017
 -3.099999999999999E-003   -4.265975514053453E-017
 -2.999999999999999E-003   -1.338055039627351E-017
 -2.899999999999999E-003    2.250725942320474E-017
 -2.799999999999999E-003    6.338394611335931E-017
 -2.699999999999999E-003    1.069186602953393E-016
 -2.599999999999999E-003    1.501299692098592E-016
 -2.499999999999999E-003    1.895118396613429E-016
 -2.399999999999999E-003    2.212258198734087E-016
 -2.299999999999999E-003    2.413547681812672E-016
 -2.199999999999999E-003    2.462075772617778E-016
 -2.099999999999999E-003    2.326580852792925E-016
 -1.999999999999999E-003    1.984963574110356E-016
 -1.899999999999999E-003    1.427654370041958E-016
 -1.799999999999999E-003    6.605418537551396E-017
 -1.699999999999999E-003   -2.928500896754135E-017
 -1.599999999999999E-003   -1.390230533014924E-016
 -1.499999999999999E-003   -2.570716927891452E-016
 -1.399999999999999E-003   -3.756516826576809E-016
 -1.299999999999999E-003   -4.856223787020644E-016
 -1.199999999999999E-003   -5.769731969116408E-016
 -1.099999999999999E-003   -6.394636669428239E-016
 -9.999999999999989E-004   -6.633867500481186E-016
 -8.999999999999990E-004   -6.404141592376628E-016
 -7.999999999999990E-004   -5.644715765156450E-016
 -6.999999999999989E-004   -4.325796873826511E-016
 -5.999999999999990E-004   -2.455896602439894E-016
 -4.999999999999989E-004   -8.738880535782287E-018
 -3.999999999999989E-004    2.680451513303301E-016
 -2.999999999999989E-004    5.701570221915845E-016
 -1.999999999999989E-004    8.786903069666512E-016
 -9.999999999999892E-005    1.171207943746897E-015
  1.084202172485504E-018    1.422907344727767E-015
  1.000000000000011E-004    1.608152055130074E-015
  2.000000000000011E-004    1.702305806476528E-015
  3.000000000000011E-004    1.683775116782045E-015
  4.000000000000011E-004    1.536131152174973E-015
  5.000000000000011E-004    1.250158703470036E-015
  6.000000000000011E-004    8.256646413416323E-016
  7.000000000000011E-004    2.728649529093324E-016
  8.000000000000011E-004   -3.868138156701971E-016
  9.000000000000012E-004   -1.120670381528865E-015
  1.000000000000001E-003   -1.885511181680788E-015
  1.100000000000001E-003   -2.629342148436814E-015
  1.200000000000001E-003   -3.293969938196012E-015
  1.300000000000001E-003   -3.818442327288598E-015
  1.400000000000001E-003   -4.143185564884096E-015
  1.500000000000001E-003   -4.214620278936143E-015
  1.600000000000001E-003   -3.989980318371364E-015
  1.700000000000001E-003   -3.442000061687113E-015
  1.800000000000001E-003   -2.563104225574758E-015
  1.900000000000001E-003   -1.368728855466911E-015
  2.000000000000001E-003    1.005836873980681E-016
  2.100000000000001E-003    1.778633261975602E-015
  2.200000000000001E-003    3.574788645318077E-015
  2.300000000000001E-003    5.377137630997463E-015
  2.400000000000001E-003    7.057583823057284E-015
  2.500000000000001E-003    8.478776852617940E-015
  2.600000000000001E-003    9.502623016529358E-015
  2.700000000000001E-003    9.999986848034940E-015
  2.800000000000001E-003    9.861050554168868E-015
  2.900000000000001E-003    9.005703621487553E-015
  3.000000000000001E-003    7.393239456395987E-015
  3.100000000000001E-003    5.030614319076988E-015
  3.200000000000001E-003    1.978486776365424E-015
  3.300000000000001E-003   -1.645647322925034E-015
  3.400000000000001E-003   -5.667842402852482E-015
  3.500000000000001E-003   -9.862052207166522E-015
  3.600000000000001E-003   -1.395868795214304E-014
  3.700000000000001E-003   -1.765736918333414E-014
  3.800000000000001E-003   -2.064358263958843E-014
  3.900000000000001E-003   -2.260863047693869E-014
  4.000000000000001E-003   -2.327198406124087E-014
  4.100000000000001E-003   -2.240481429346698E-014
  4.200000000000001E-003   -1.985324660529206E-014
  4.300000000000001E-003   -1.555967881351869E-014
  4.400000000000001E-003   -9.580400388464841E-015
  4.500000000000001E-003   -2.097723071472307E-015
  4.600000000000002E-003    6.575011240891953E-015
  4.700000000000001E-003    1.599696216773759E-014
  4.800000000000001E-003    2.561284038299575E-014
  4.900000000000002E-003    3.477595782881415E-014
  5.000000000000001E-003    4.278108147767106E-014
  5.100000000000001E-003    4.890616338517922E-014
  5.200000000000001E-003    5.246123204785279E-014
  5.300000000000002E-003    5.284196058664740E-014
  5.400000000000001E-003    4.958468518918805E-014
  5.500000000000001E-003    4.241909944138921E-014
  5.600000000000002E-003    3.131439961219887E-014
  5.700000000000001E-003    1.651466515191097E-014
  5.800000000000001E-003   -1.440747185680544E-015
  5.900000000000002E-003   -2.171533379555978E-014
  6.000000000000001E-003   -4.319485116358152E-014
  6.100000000000001E-003   -6.452951516840858E-014
  6.200000000000002E-003   -8.419903005511170E-014
  6.300000000000002E-003   -1.005987966329477E-013
  6.400000000000001E-003   -1.121437649611297E-013
  6.500000000000001E-003   -1.173847332190070E-013
  6.600000000000002E-003   -1.151301490210241E-013
  6.700000000000001E-003   -1.045650912155647E-013
  6.800000000000001E-003   -8.535853655008579E-014
  6.900000000000002E-003   -5.774925011698113E-014
  7.000000000000001E-003   -2.260147639821917E-014
  7.100000000000001E-003    1.857770349885694E-014
  7.200000000000002E-003    6.366523603735847E-014
  7.300000000000002E-003    1.099968735202447E-013
  7.400000000000001E-003    1.544903059594495E-013
  7.500000000000001E-003    1.938134882792953E-013
  7.600000000000002E-003    2.245914821922822E-013
  7.700000000000001E-003    2.436412243639739E-013
  7.800000000000001E-003    2.482207652858641E-013
  7.900000000000001E-003    2.362760675140909E-013
  8.000000000000002E-003    2.066678406266893E-013
  8.100000000000001E-003    1.593590230730850E-013
  8.200000000000001E-003    9.554543491156905E-014
  8.300000000000002E-003    1.771314820382628E-014
  8.400000000000001E-003   -7.038927969891370E-014
  8.500000000000002E-003   -1.638716027972875E-013
  8.600000000000002E-003   -2.569171125913206E-013
  8.700000000000001E-003   -3.430872090552725E-013
  8.800000000000002E-003   -4.157033173738437E-013
  8.900000000000002E-003   -4.682871289310223E-013
  9.000000000000001E-003   -4.950339337361371E-013
  9.100000000000002E-003   -4.912888876848024E-013
  9.200000000000002E-003   -4.539929733755070E-013
  9.300000000000001E-003   -3.820635576714584E-013
  9.400000000000002E-003   -2.766765763593938E-013
  9.500000000000001E-003   -1.414199632921731E-013
  9.600000000000001E-003    1.770503371327390E-014
  9.700000000000002E-003    1.924495288876102E-013
  9.800000000000001E-003    3.726549867240425E-013
  9.900000000000001E-003    5.467562785216284E-013
  1.000000000000000E-002    7.024309395691130E-013
  1.010000000000000E-002    8.273632447385922E-013
  1.020000000000000E-002    9.100819547487964E-013
  1.030000000000000E-002    9.408200876030416E-013
  1.040000000000000E-002    9.123406863491023E-013
  1.050000000000000E-002    8.206686603337716E-013
  1.060000000000000E-002    6.656706589905969E-013
  1.070000000000000E-002    4.514299378125420E-013
  1.080000000000000E-002    1.863725472276950E-013
  1.090000000000000E-002   -1.168857797769837E-013
  1.100000000000000E-002   -4.419858608817465E-013
  1.110000000000000E-002   -7.695616945562215E-013
  1.120000000000000E-002   -1.078243006837256E-012
  1.130000000000000E-002   -1.345881069808099E-012
  1.140000000000000E-002   -1.550936944126514E-012
  1.150000000000000E-002   -1.673954878137143E-012
  1.160000000000000E-002   -1.699032056161272E-012
  1.170000000000000E-002   -1.615190166983356E-012
  1.180000000000000E-002   -1.417549518067330E-012
  1.190000000000000E-002   -1.108214589955953E-012
  1.200000000000000E-002   -6.967878922748890E-013
  1.210000000000000E-002   -2.004465388493954E-013
  1.220000000000000E-002    3.564619273055927E-013
  1.230000000000000E-002    9.433210154305150E-013
  1.240000000000000E-002    1.524632730425285E-012
  1.250000000000000E-002    2.061846060986033E-012
  1.260000000000000E-002    2.515551884731302E-012
  1.270000000000000E-002    2.847939184705930E-012
  1.280000000000000E-002    3.025383316979752E-012
  1.290000000000000E-002    3.021013786812807E-012
  1.300000000000000E-002    2.817101666362402E-012
  1.310000000000000E-002    2.407095185604846E-012
  1.320000000000000E-002    1.797147433063805E-012
  1.330000000000000E-002    1.006983435345493E-012
  1.340000000000000E-002    6.999589004434104E-014
  1.350000000000000E-002   -9.675198641914234E-013
  1.360000000000000E-002   -2.048025024278812E-012
  1.370000000000000E-002   -3.105278932695325E-012
  1.380000000000000E-002   -4.067689810750657E-012
  1.390000000000000E-002   -4.862347267802414E-012
  1.400000000000000E-002   -5.419551126546331E-012
  1.410000000000000E-002   -5.677602244494545E-012
  1.420000000000000E-002   -5.587578585974688E-012
  1.430000000000000E-002   -5.117793643111485E-012
  1.440000000000000E-002   -4.257618778081097E-012
  1.450000000000000E-002   -3.020369716704385E-012
  1.460000000000000E-002   -1.444967336781425E-012
  1.470000000000000E-002    4.038493419108521E-013
  1.480000000000000E-002    2.436925957402232E-012
  1.490000000000000E-002    4.543785897877552E-012
  1.500000000000000E-002    6.597387299819114E-012
  1.510000000000000E-002    8.460410913202102E-012
  1.520000000000000E-002    9.992834393223152E-012
  1.530000000000000E-002    1.106044090109136E-011
  1.540000000000000E-002    1.154381437899663E-011
  1.550000000000000E-002    1.134730075100408E-011
  1.560000000000000E-002    1.040736226263006E-011
  1.570000000000000E-002    8.699750058267246E-012
  1.580000000000000E-002    6.244921435311924E-012
  1.590000000000000E-002    3.111204457805036E-012
  1.600000000000000E-002   -5.846900512232628E-013
  1.610000000000000E-002   -4.680088168425044E-012
  1.620000000000000E-002   -8.971797224209062E-012
  1.630000000000000E-002   -1.322450987687633E-011
  1.640000000000000E-002   -1.718188590442790E-011
  1.650000000000000E-002   -2.057985617807574E-011
  1.660000000000000E-002   -2.316150334517348E-011
  1.670000000000000E-002   -2.469273174830428E-011
  1.680000000000000E-002   -2.497782983994217E-011
  1.690000000000000E-002   -2.387397559615295E-011
  1.700000000000000E-002   -2.130372642430890E-011
  1.710000000000000E-002   -1.726460820525926E-011
  1.720000000000000E-002   -1.183504524621805E-011
  1.730000000000000E-002   -5.176030445448845E-012
  1.740000000000000E-002    2.471798324678788E-012
  1.750000000000000E-002    1.079577152188057E-011
  1.760000000000000E-002    1.942328555231268E-011
  1.770000000000000E-002    2.793791143883297E-011
  1.780000000000000E-002    3.589874475713096E-011
  1.790000000000000E-002    4.286203251002608E-011
  1.800000000000000E-002    4.840389206520104E-011
  1.810000000000000E-002    5.214287616160244E-011
  1.820000000000000E-002    5.376108766240953E-011
  1.830000000000000E-002    5.302257522594025E-011
  1.840000000000000E-002    4.978796233274451E-011
  1.850000000000000E-002    4.402436418263021E-011
  1.860000000000000E-002    3.581002941624273E-011
  1.870000000000000E-002    2.533341807424473E-011