 -4.000000000000000E-002    0.000000000000000E+000
 -3.990000000000000E-002    0.000000000000000E+000
 -3.980000000000000E-002    0.000000000000000E+000
 -3.970000000000000E-002    0.000000000000000E+000
 -3.960000000000000E-002    0.000000000000000E+000
 -3.950000000000000E-002    0.000000000000000E+000
 -3.940000000000000E-002    0.000000000000000E+000
 -3.930000000000000E-002    0.000000000000000E+000
 -3.920000000000000E-002    0.000000000000000E+000
 -3.910000000000000E-002    0.000000000000000E+000
 -3.900000000000000E-002    0.000000000000000E+000
 -3.890000000000000E-002    0.000000000000000E+000
 -3.880000000000000E-002    0.000000000000000E+000
 -3.870000000000000E-002    0.000000000000000E+000
 -3.860000000000000E-002    0.000000000000000E+000
 -3.850000000000000E-002    0.000000000000000E+000
 -3.840000000000000E-002    0.000000000000000E+000
 -3.830000000000000E-002    0.000000000000000E+000
 -3.820000000000000E-002    0.000000000000000E+000
 -3.810000000000000E-002    0.000000000000000E+000
 -3.800000000000000E-002   -1.922161354031257E-047
 -3.790000000000000E-002   -1.423149397642946E-046
 -3.780000000000000E-002   -5.876156208930842E-046
 -3.770000000000000E-002   -2.439563585684607E-045
 -3.760000000000000E-002   -9.691350472258065E-045
 -3.750000000000000E-002   -3.287400255933166E-044
 -3.740000000000000E-002   -1.016587246829157E-043
 -3.730000000000000E-002   -2.734615061904117E-043
 -3.720000000000000E-002   -6.311025025573484E-043
 -3.710000000000000E-002   -1.162829302177081E-042
 -3.700000000000000E-002   -1.249203852926588E-042
 -3.690000000000000E-002    1.969248162180876E-042
 -3.680000000000000E-002    1.793483626574020E-041
 -3.670000000000000E-002    7.274551077182724E-041
 -3.660000000000000E-002    2.297573412558032E-040
 -3.650000000000000E-002    6.262628635790053E-040
 -3.640000000000000E-002    1.527589197073376E-039
 -3.630000000000000E-002    3.381687395733253E-039
 -3.620000000000000E-002    6.807479549379094E-039
 -3.610000000000000E-002    1.233980038993359E-038
 -3.600000000000000E-002    1.954182140747407E-038
 -3.590000000000000E-002    2.473960703033699E-038
 -3.580000000000000E-002    1.611514875562573E-038
 -3.570000000000000E-002   -3.571384648736815E-038
 -3.560000000000000E-002   -1.939258750951862E-037
 -3.550000000000000E-002   -5.804376584481395E-037
 -3.540000000000000E-002   -1.408989987259655E-036
 -3.530000000000000E-002   -3.019233252395760E-036
 -3.520000000000000E-002   -5.891035390057345E-036
 -3.510000000000000E-002   -1.059398233034814E-035
 -3.500000000000000E-002   -1.758906454562740E-035
 -3.490000000000000E-002   -2.674733088415957E-035
 -3.480000000000000E-002   -3.638997513816077E-035
 -3.470000000000000E-002   -4.160471679657984E-035
 -3.460000000000000E-002   -3.159337021051535E-035
 -3.450000000000000E-002    1.407685654672722E-035
 -3.440000000000000E-002    1.301075273533963E-034
 -3.430000000000000E-002    3.700852034873023E-034
 -3.420000000000000E-002    8.089757943781120E-034
 -3.410000000000000E-002    1.539566840943834E-033
 -3.400000000000000E-002    2.656455936691333E-033
 -3.390000000000000E-002    4.218297312968903E-033
 -3.380000000000000E-002    6.176335385907380E-033
 -3.370000000000000E-002    8.256031478547928E-033
 -3.360000000000000E-002    9.780844412571485E-033
 -3.350000000000000E-002    9.435923375551164E-033
 -3.340000000000000E-002    4.988326193399281E-033
 -3.330000000000000E-002   -6.986510714842723E-033
 -3.320000000000000E-002   -3.127175619389244E-032
 -3.310000000000000E-002   -7.390012505542343E-032
 -3.300000000000000E-002   -1.415160789368534E-031
 -3.290000000000000E-002   -2.398712385267947E-031
 -3.280000000000000E-002   -3.710525829975446E-031
 -3.270000000000000E-002   -5.290431892330397E-031
 -3.260000000000000E-002   -6.933337453084304E-031
 -3.250000000000000E-002   -8.206126413126105E-031
 -3.240000000000000E-002   -8.351402055996161E-031
 -3.230000000000000E-002   -6.193268035076173E-031
 -3.220000000000000E-002   -7.321607229044677E-033
 -3.210000000000000E-002    1.213968918471144E-030
 -3.200000000000000E-002    3.290228788212793E-030
 -3.190000000000000E-002    6.463625557135043E-030
 -3.180000000000000E-002    1.090652868456573E-029
 -3.170000000000000E-002    1.661693571283126E-029
 -3.160000000000000E-002    2.327062538853476E-029
 -3.150000000000000E-002    3.003183662450265E-029
 -3.140000000000000E-002    3.533577659497714E-029
 -3.130000000000000E-002    3.667327116970051E-029
 -3.120000000000000E-002    3.043012617168834E-029
 -3.110000000000000E-002    1.186012592102161E-029
 -3.100000000000000E-002   -2.470256189415039E-029
 -3.090000000000000E-002   -8.526406356272094E-029
 -3.080000000000000E-002   -1.750886973411231E-028
 -3.070000000000000E-002   -2.969948247640102E-028
 -3.060000000000000E-002   -4.489633594354941E-028
 -3.050000000000000E-002   -6.210977307262240E-028
 -3.040000000000000E-002   -7.921388043463082E-028
 -3.030000000000000E-002   -9.259677909501442E-028
 -3.020000000000000E-002   -9.688145854225039E-028
 -3.010000000000000E-002   -8.482050315014604E-028
 -3.000000000000000E-002   -4.749822231780022E-028
 -2.990000000000000E-002    2.500479315609180E-028
 -2.980000000000000E-002    1.423264621142453E-027
 -2.970000000000000E-002    3.117852504183534E-027
 -2.960000000000000E-002    5.355251299214485E-027
 -2.950000000000000E-002    8.068992809734696E-027
 -2.940000000000000E-002    1.106326638442097E-026
 -2.930000000000000E-002    1.397089269473328E-026
 -2.920000000000000E-002    1.621817340998293E-026
 -2.910000000000000E-002    1.700696357292084E-026
 -2.900000000000000E-002    1.532688507398394E-026
 -2.890000000000000E-002    1.001213751107993E-026
 -2.880000000000000E-002   -1.429081393096000E-028
 -2.870000000000000E-002   -1.619813884340482E-026
 -2.860000000000000E-002   -3.880748255391343E-026
 -2.850000000000000E-002   -6.789004957623124E-026
 -2.840000000000000E-002   -1.022536243392826E-025
 -2.830000000000000E-002   -1.392101716294779E-025
 -2.820000000000000E-002   -1.742440313524795E-025
 -2.810000000000000E-002   -2.008140091994366E-025
 -2.800000000000000E-002   -2.103872094863851E-025
 -2.790000000000000E-002   -1.928101115849097E-025
 -2.780000000000000E-002   -1.371161860384507E-025
 -2.770000000000000E-002   -3.284363815507323E-026
 -2.760000000000000E-002    1.281123252653014E-025
 -2.750000000000000E-002    3.491633157449609E-025
 -2.740000000000000E-002    6.263577466196525E-025
 -2.730000000000000E-002    9.456444045823692E-025
 -2.720000000000000E-002    1.280462380005134E-024
 -2.710000000000000E-002    1.590164601953852E-024
 -2.700000000000000E-002    1.819863492911399E-024
 -2.690000000000000E-002    1.902311822824944E-024
 -2.680000000000000E-002    1.762367867543344E-024
 -2.670000000000000E-002    1.324423074595877E-024
 -2.660000000000000E-002    5.228754575370114E-025
 -2.650000000000000E-002   -6.846899067712819E-025
 -2.640000000000000E-002   -2.302479599278745E-024
 -2.630000000000000E-002   -4.281088603201612E-024
 -2.620000000000000E-002   -6.503769444460854E-024
 -2.610000000000000E-002   -8.776926540505241E-024
 -2.600000000000000E-002   -1.082770490419187E-023
 -2.590000000000000E-002   -1.231152397786117E-023
 -2.580000000000000E-002   -1.283199816388045E-023
 -2.570000000000000E-002   -1.197477509999304E-023
 -2.560000000000000E-002   -9.355374724839128E-024
 -2.550000000000000E-002   -4.679205180138258E-024
 -2.540000000000000E-002    2.190360261722121E-024
 -2.530000000000000E-002    1.116239017275738E-023
 -2.520000000000000E-002    2.185611038303052E-023
 -2.510000000000000E-002    3.355653195400897E-023
 -2.500000000000000E-002    4.519939780850369E-023
 -2.490000000000000E-002    5.539638829178029E-023
 -2.480000000000000E-002    6.250937863144458E-023
 -2.470000000000000E-002    6.477857778805710E-023
 -2.460000000000000E-002    6.050357172404229E-023
 -2.450000000000000E-002    4.826908171209748E-023
 -2.440000000000000E-002    2.719890006317133E-023
 -2.430000000000000E-002   -2.786793053760430E-024
 -2.420000000000000E-002   -4.074286804817469E-023
 -2.410000000000000E-002   -8.453660257033050E-023
 -2.400000000000000E-002   -1.307895254844484E-022
 -2.390000000000000E-002   -1.749590104908620E-022
 -2.380000000000000E-002   -2.115861559983443E-022
 -2.370000000000000E-002   -2.347217220610551E-022
 -2.360000000000000E-002   -2.385220872890240E-022
 -2.350000000000000E-002   -2.179829551610622E-022
 -2.340000000000000E-002   -1.697525518237156E-022
 -2.330000000000000E-002   -9.294109055394468E-023
 -2.320000000000000E-002    1.017747877425073E-023
 -2.310000000000000E-002    1.336877303286899E-022
 -2.300000000000000E-002    2.678956263441792E-022
 -2.290000000000000E-002    3.996341603204731E-022
 -2.280000000000000E-002    5.130825840291847E-022
 -2.270000000000000E-002    5.911215886819604E-022
 -2.260000000000000E-002    6.171841965756742E-022
 -2.250000000000000E-002    5.774879301376100E-022
 -2.240000000000000E-002    4.634570260276977E-022
 -2.230000000000000E-002    2.740711399540910E-022
 -2.220000000000000E-002    1.782060634610255E-023
 -2.210000000000000E-002   -2.860813351299008E-022
 -2.200000000000000E-002   -6.075720751494729E-022
 -2.190000000000000E-002   -9.069886040301344E-022
 -2.180000000000000E-002   -1.137880664867562E-021
 -2.170000000000000E-002   -1.251425088942299E-021
 -2.160000000000000E-002   -1.202283267796859E-021
 -2.150000000000000E-002   -9.555240534443484E-022
 -2.140000000000000E-002   -4.940005521242983E-022
 -2.130000000000000E-002    1.746404368235708E-022
 -2.120000000000000E-002    1.012301095442320E-021
 -2.110000000000000E-002    1.947191244110258E-021
 -2.100000000000000E-002    2.874035623743179E-021
 -2.090000000000000E-002    3.658592282234578E-021
 -2.080000000000000E-002    4.147027335242626E-021
 -2.070000000000000E-002    4.180224207062855E-021
 -2.060000000000000E-002    3.612520922178402E-021
 -2.050000000000000E-002    2.333690117057532E-021
 -2.040000000000000E-002    2.922911031181486E-022
 -2.030000000000000E-002   -2.482108006316713E-021
 -2.020000000000000E-002   -5.860820672083674E-021
 -2.010000000000000E-002   -9.605246085978006E-021
 -2.000000000000000E-002   -1.336648560765310E-020
 -1.990000000000000E-002   -1.669795192970479E-020
 -1.980000000000000E-002   -1.908261072553545E-020
 -1.970000000000000E-002   -1.997513486100099E-020
 -1.960000000000000E-002   -1.885753172492408E-020
 -1.950000000000000E-002   -1.530491967690980E-020
 -1.940000000000000E-002   -9.056132185012221E-021
 -1.930000000000000E-002   -8.212289742935318E-023
 -1.920000000000000E-002    1.135613897060670E-020
 -1.910000000000000E-002    2.466920820109529E-020
 -1.900000000000000E-002    3.892865540493939E-020
 -1.890000000000000E-002    5.289165824720316E-020
 -1.880000000000000E-002    6.506520556332161E-020
 -1.870000000000000E-002    7.381093326045507E-020
 -1.860000000000000E-002    7.748706394034486E-020
 -1.850000000000000E-002    7.461923145419225E-020
 -1.840000000000000E-002    6.408693903399180E-020
 -1.830000000000000E-002    4.530837575696130E-020
 -1.820000000000000E-002    1.840317469403491E-020
 -1.810000000000000E-002   -1.568842833151186E-020
 -1.800000000000000E-002   -5.515063371756083E-020
 -1.790000000000000E-002   -9.731838601266022E-020
 -1.780000000000000E-002   -1.387960434715490E-019
 -1.770000000000000E-002   -1.756713046485941E-019
 -1.760000000000000E-002   -2.038173542252865E-019
 -1.750000000000000E-002   -2.192658696140844E-019
 -1.740000000000000E-002   -2.186225827442020E-019
 -1.730000000000000E-002   -1.994890371906326E-019
 -1.720000000000000E-002   -1.608470818821880E-019
 -1.710000000000000E-002   -1.033608364317162E-019
 -1.700000000000000E-002   -2.955244133156346E-020
 -1.690000000000000E-002    5.618513549297920E-020
 -1.680000000000000E-002    1.477632578727274E-019
 -1.670000000000000E-002    2.377700062294321E-019
 -1.660000000000000E-002    3.180298909595695E-019
 -1.650000000000000E-002    3.803200507314533E-019
 -1.640000000000000E-002    4.171922474143375E-019
 -1.630000000000000E-002    4.228313557338581E-019
 -1.620000000000000E-002    3.938666591686771E-019
 -1.610000000000000E-002    3.300457694804978E-019
 -1.600000000000000E-002    2.346796140943711E-019
 -1.590000000000000E-002    1.147766933310287E-019
 -1.580000000000000E-002   -1.919736338057969E-020
 -1.570000000000000E-002   -1.539717985905832E-019
 -1.560000000000000E-002   -2.745359087675044E-019
 -1.550000000000000E-002   -3.655771479009136E-019
 -1.540000000000000E-002   -4.132075521908921E-019
 -1.530000000000000E-002   -4.068468883097837E-019
 -1.520000000000000E-002   -3.410906005505721E-019
 -1.510000000000000E-002   -2.173562353516066E-019
 -1.500000000000000E-002   -4.508253259029496E-020
 -1.490000000000000E-002    1.577468365328930E-019
 -1.480000000000000E-002    3.649612882004436E-019
 -1.470000000000000E-002    5.436012147806613E-019
 -1.460000000000000E-002    6.564387738734350E-019
 -1.450000000000000E-002    6.655985778645458E-019
 -1.440000000000000E-002    5.371310108165203E-019
 -1.430000000000000E-002    2.462432063612474E-019
 -1.420000000000000E-002   -2.172508940891773E-019
 -1.410000000000000E-002   -8.438378767322804E-019
 -1.400000000000000E-002   -1.600250261947116E-018
 -1.390000000000000E-002   -2.427182548629822E-018
 -1.380000000000000E-002   -3.239490015460032E-018
 -1.370000000000000E-002   -3.929477684908661E-018
 -1.360000000000000E-002   -4.373673116106906E-018
 -1.350000000000000E-002   -4.443170656092478E-018
 -1.340000000000000E-002   -4.017236947635362E-018
 -1.330000000000000E-002   -2.999404989611837E-018
 -1.320000000000000E-002   -1.334798980015505E-018
 -1.310000000000000E-002    9.730156749294405E-019
 -1.300000000000000E-002    3.847724094966751E-018
 -1.290000000000000E-002    7.130751285435540E-018
 -1.280000000000000E-002    1.057878098602274E-017
 -1.270000000000000E-002    1.387022611725592E-017
 -1.260000000000000E-002    1.662197022781973E-017
 -1.250000000000000E-002    1.841679237322787E-017
 -1.240000000000000E-002    1.884075886307438E-017
 -1.230000000000000E-002    1.752852737995545E-017
 -1.220000000000000E-002    1.421317821795026E-017
 -1.210000000000000E-002    8.775939720754999E-018
 -1.200000000000000E-002    1.290227408268314E-018
 -1.190000000000000E-002   -7.946039533998981E-018
 -1.180000000000000E-002   -1.839578319019036E-017
 -1.170000000000000E-002   -2.929083771252686E-017
 -1.160000000000000E-002   -3.966621263959556E-017
 -1.150000000000000E-002   -4.842170758044386E-017
 -1.140000000000000E-002   -5.440918892534985E-017
 -1.130000000000000E-002   -5.654064779940982E-017
 -1.120000000000000E-002   -5.390901593001361E-017
 -1.110000000000000E-002   -4.591088199322965E-017
 -1.100000000000000E-002   -3.235831165515253E-017
 -1.090000000000000E-002   -1.356604857965582E-017
 -1.080000000000000E-002    9.599032736353505E-018
 -1.070000000000000E-002    3.571723937541128E-017
 -1.060000000000000E-002    6.287140289800381E-017
 -1.050000000000000E-002    8.876052135072432E-017
 -1.040000000000000E-002    1.108677783250100E-016
 -1.030000000000000E-002    1.266727598626057E-016
 -1.020000000000000E-002    1.338913712467249E-016
 -1.010000000000000E-002    1.307219279117159E-016
 -1.000000000000000E-002    1.160727248529110E-016
 -9.899999999999999E-003    8.974537525226244E-017
 -9.800000000000000E-003    5.255032239841656E-017
 -9.699999999999999E-003    6.335694208334573E-018
 -9.599999999999999E-003   -4.608163224224483E-017
 -9.500000000000000E-003   -1.010842871204384E-016
 -9.399999999999999E-003   -1.545126544033382E-016
 -9.299999999999999E-003   -2.019930739468276E-016
 -9.200000000000000E-003   -2.393064510297205E-016
 -9.099999999999999E-003   -2.627609846736331E-016
 -8.999999999999999E-003   -2.695298467339374E-016
 -8.900000000000000E-003   -2.579163019867772E-016
 -8.799999999999999E-003   -2.275149564165772E-016
 -8.699999999999999E-003   -1.792490622286238E-016
 -8.600000000000000E-003   -1.152781075036437E-016
 -8.499999999999999E-003   -3.878641687923440E-017
 -8.399999999999999E-003    4.632032580648592E-017
 -8.300000000000000E-003    1.357692293866676E-016
 -8.199999999999999E-003    2.252745870010288E-016
 -8.100000000000000E-003    3.108387788561177E-016
 -8.000000000000000E-003    3.889507299067918E-016
 -7.899999999999999E-003    4.566459357633069E-016
 -7.800000000000000E-003    5.114124345154252E-016
 -7.699999999999999E-003    5.509529358820412E-016
 -7.599999999999999E-003    5.728421547932785E-016
 -7.499999999999999E-003    5.741455118658200E-016
 -7.399999999999999E-003    5.510882361266521E-016
 -7.299999999999999E-003    4.988747391397472E-016
 -7.199999999999999E-003    4.117588694402635E-016
 -7.100000000000000E-003    2.834475572831263E-016
 -6.999999999999999E-003    1.078865803820656E-016
 -6.899999999999999E-003   -1.195705732383175E-016
 -6.800000000000000E-003   -4.006720150048772E-016
 -6.699999999999999E-003   -7.325820386966788E-016
 -6.599999999999999E-003   -1.106191857797226E-015
 -6.499999999999999E-003   -1.504673009147541E-015
 -6.399999999999999E-003   -1.902549850140563E-015
 -6.299999999999999E-003   -2.265576218395260E-015
 -6.199999999999999E-003   -2.551663634699799E-015
 -6.100000000000000E-003   -2.713044972833783E-015
 -5.999999999999999E-003   -2.699741533891581E-015
 -5.899999999999999E-003   -2.464267416505574E-015
 -5.800000000000000E-003   -1.967330508615366E-015
 -5.699999999999999E-003   -1.184132364606452E-015
 -5.599999999999999E-003   -1.106935968427144E-016
 -5.499999999999999E-003    1.230483710346543E-015
 -5.399999999999999E-003    2.786187891997846E-015
 -5.299999999999999E-003    4.470473834951611E-015
 -5.199999999999999E-003    6.165532266127737E-015
 -5.099999999999999E-003    7.725972859508601E-015
 -4.999999999999999E-003    8.986769345842625E-015
 -4.899999999999999E-003    9.774790549887625E-015
 -4.799999999999999E-003    9.923441631084325E-015
 -4.699999999999999E-003    9.289534850906913E-015
 -4.599999999999999E-003    7.771130087207232E-015
 -4.499999999999999E-003    5.324751961169787E-015
 -4.399999999999999E-003    1.980196637990486E-015
 -4.299999999999999E-003   -2.148927872569735E-015
 -4.199999999999999E-003   -6.860656125255826E-015
 -4.099999999999999E-003   -1.186752693632153E-014
 -3.999999999999999E-003   -1.680776625043375E-014
 -3.899999999999999E-003   -2.126501599696114E-014
 -3.799999999999999E-003   -2.479606467423176E-014
 -3.699999999999999E-003   -2.696516332159582E-014
 -3.599999999999999E-003   -2.738270015650772E-014
 -3.499999999999999E-003   -2.574528298444799E-014
 -3.399999999999999E-003   -2.187376854076854E-014
 -3.299999999999999E-003   -1.574550094428844E-014
 -3.199999999999999E-003   -7.517143420929680E-015
 -3.099999999999999E-003    2.465094021484107E-015
 -2.999999999999999E-003    1.367021946912298E-014
 -2.899999999999999E-003    2.540347906421368E-014
 -2.799999999999999E-003    3.684353195747869E-014
 -2.699999999999999E-003    4.709420551223569E-014
 -2.599999999999999E-003    5.524775112631740E-014
 -2.499999999999999E-003    6.045521107393721E-014
 -2.399999999999999E-003    6.199847420121772E-014
 -2.299999999999999E-003    5.935802365586095E-014
 -2.199999999999999E-003    5.227029667556221E-014
 -2.099999999999999E-003    4.076908606905346E-014
 -1.999999999999999E-003    2.520652222571004E-014
 -1.899999999999999E-003    6.250713323446787E-015
 -1.799999999999999E-003   -1.514092139482535E-014
 -1.699999999999999E-003   -3.777146772894233E-014
 -1.599999999999999E-003   -6.027422792751436E-014
 -1.499999999999999E-003   -8.119719646643244E-014
 -1.399999999999999E-003   -9.909576464675678E-014
 -1.299999999999999E-003   -1.126263986776672E-013
 -1.199999999999999E-003   -1.206339102338390E-013
 -1.099999999999999E-003   -1.222257164761809E-013
 -9.999999999999989E-004   -1.168279736753657E-013
 -8.999999999999990E-004   -1.042202889458222E-013
 -7.999999999999990E-004   -8.454827747368707E-014
 -6.999999999999989E-004   -5.831535868121883E-014
 -5.999999999999990E-004   -2.635744114747905E-014
 -4.999999999999989E-004    1.019444086055145E-014
 -3.999999999999989E-004    4.995768821990265E-014
 -2.999999999999989E-004    9.134230276429505E-014
 -1.999999999999989E-004    1.325913316119155E-013
 -9.999999999999892E-005    1.718153643733876E-013
  1.084202172485504E-018    2.070215560330229E-013
  1.000000000000011E-004    2.361407559701332E-013
  2.000000000000011E-004    2.570589678502877E-013
  3.000000000000011E-004    2.676614942732981E-013
  4.000000000000011E-004    2.658990866944347E-013
  5.000000000000011E-004    2.498843621024728E-013
  6.000000000000011E-004    2.180245443801106E-013
  7.000000000000011E-004    1.691919321327237E-013
  8.000000000000011E-004    1.029275194570632E-013
  9.000000000000012E-004    1.966628305485830E-014
  1.000000000000001E-003   -7.903502131432255E-014
  1.100000000000001E-003   -1.902935570183971E-013
  1.200000000000001E-003   -3.097507333363584E-013
  1.300000000000001E-003   -4.315110127171936E-013
  1.400000000000001E-003   -5.482021125065263E-013
  1.500000000000001E-003   -6.511845433274710E-013
  1.600000000000001E-003   -7.309289588699663E-013
  1.700000000000001E-003   -7.775659642585732E-013
  1.800000000000001E-003   -7.815964560046739E-013
  1.900000000000001E-003   -7.347310921141209E-013
  2.000000000000001E-003   -6.308073516512337E-013
  2.100000000000001E-003   -4.667156920156468E-013
  2.200000000000001E-003   -2.432506295156283E-013
  2.300000000000001E-003    3.420530627889194E-014
  2.400000000000001E-003    3.552576807739490E-013
  2.500000000000001E-003    7.044212946476285E-013
  2.600000000000001E-003    1.061453533927795E-012
  2.700000000000001E-003    1.402140691916476E-012
  2.800000000000001E-003    1.699542407238064E-012
  2.900000000000001E-003    1.925660211829884E-012
  3.000000000000001E-003    2.053451694571837E-012
  3.100000000000001E-003    2.059070865378363E-012
  3.200000000000001E-003    1.924180510671411E-012
  3.300000000000001E-003    1.638150491275626E-012
  3.400000000000001E-003    1.199948083021144E-012
  3.500000000000001E-003    6.195214743564548E-013
  3.600000000000001E-003   -8.149702036418325E-014
  3.700000000000001E-003   -8.699112074099122E-013
  3.800000000000001E-003   -1.701990366038296E-012
  3.900000000000001E-003   -2.525430387160528E-012
  4.000000000000001E-003   -3.282194278398686E-012
  4.100000000000001E-003   -3.912103777900154E-012
  4.200000000000001E-003   -4.356977857566798E-012
  4.300000000000001E-003   -4.565053813061083E-012
  4.400000000000001E-003   -4.495379334220649E-012
  4.500000000000001E-003   -4.121836933741877E-012
  4.600000000000002E-003   -3.436466526227658E-012
  4.700000000000001E-003   -2.451777923721225E-012
  4.800000000000001E-003   -1.201798443173601E-012
  4.900000000000002E-003    2.583177353824706E-013
  5.000000000000001E-003    1.854197538944567E-012
  5.100000000000001E-003    3.495643623653296E-012
  5.200000000000001E-003    5.081374506702622E-012
  5.300000000000002E-003    6.504858960319357E-012
  5.400000000000001E-003    7.660907185685020E-012
  5.500000000000001E-003    8.452610137116814E-012
  5.600000000000002E-003    8.798166309235468E-012
  5.700000000000001E-003    8.637149429031803E-012
  5.800000000000001E-003    7.935764067636665E-012
  5.900000000000002E-003    6.690722319403013E-012
  6.000000000000001E-003    4.931429813210574E-012
  6.100000000000001E-003    2.720297718476624E-012
  6.200000000000002E-003    1.510942443365845E-013
  6.300000000000002E-003   -2.654615289972835E-012
  6.400000000000001E-003   -5.552785353035263E-012
  6.500000000000001E-003   -8.383704435919409E-012
  6.600000000000002E-003   -1.097996191596531E-011
  6.700000000000001E-003   -1.317517055707356E-011
  6.800000000000001E-003   -1.481301559824318E-011
  6.900000000000002E-003   -1.575618333826537E-011
  7.000000000000001E-003   -1.589475886754412E-011
  7.100000000000001E-003   -1.515369062637070E-011
  7.200000000000002E-003   -1.349898453991324E-011
  7.300000000000002E-003   -1.094232617244036E-011
  7.400000000000001E-003   -7.543883899234651E-012
  7.500000000000001E-003   -3.413105663608706E-012
  7.600000000000002E-003    1.292649335298014E-012
  7.700000000000001E-003    6.371745014204125E-012
  7.800000000000001E-003    1.158422791527543E-011
  7.900000000000001E-003    1.666010953960764E-011
  8.000000000000002E-003    2.130991694553450E-011
  8.100000000000001E-003    2.523734162113639E-011
  8.200000000000001E-003    2.815372377336080E-011
  8.300000000000002E-003    2.979398607280193E-011
  8.400000000000001E-003    2.993343917007834E-011
  8.500000000000002E-003    2.840472258658972E-011
  8.600000000000002E-003    2.511402278935475E-011
  8.700000000000001E-003    2.005548911948830E-011
  8.800000000000002E-003    1.332270568112029E-011
  8.900000000000002E-003    5.116048232728603E-012
  9.000000000000001E-003   -4.255256671585820E-012
  9.100000000000002E-003   -1.437737417944480E-011
  9.200000000000002E-003   -2.474315732397122E-011
  9.300000000000001E-003   -3.477089437790774E-011
  9.400000000000002E-003   -4.383042736451335E-011
  9.500000000000001E-003   -5.127601505784482E-011
  9.600000000000001E-003   -5.648469131712580E-011
  9.700000000000002E-003   -5.889826816131859E-011
  9.800000000000001E-003   -5.806663405997221E-011
  9.900000000000001E-003   -5.368944696034651E-011
  1.000000000000000E-002   -4.565307636821180E-011
  1.010000000000000E-002   -3.405963045142072E-011
  1.020000000000000E-002   -1.924494588017095E-011
  1.030000000000000E-002   -1.782924364412424E-012
  1.040000000000000E-002    1.752570543002920E-011
  1.050000000000000E-002    3.768123113051058E-011
  1.060000000000000E-002    5.752928493547225E-011
  1.070000000000000E-002    7.582029948790335E-011
  1.080000000000000E-002    9.128145780878978E-011
  1.090000000000000E-002    1.026973454243374E-010
  1.100000000000000E-002    1.089943998500926E-010
  1.110000000000000E-002    1.093235924805869E-010
  1.120000000000000E-002    1.031353901464113E-010
  1.130000000000000E-002    9.024103090320472E-011
  1.140000000000000E-002    7.085465443263861E-011
  1.150000000000000E-002    4.561190463788633E-011
  1.160000000000000E-002    1.556181807497600E-011
  1.170000000000000E-002   -1.786930873772885E-011
  1.180000000000000E-002   -5.294155678233330E-011
  1.190000000000000E-002   -8.768996659689667E-011
  1.200000000000000E-002   -1.200335121368175E-010
  1.210000000000000E-002   -1.478982437237643E-010
  1.220000000000000E-002   -1.693470006717902E-010
  1.230000000000000E-002   -1.827072729230611E-010
  1.240000000000000E-002   -1.866885177697167E-010
  1.250000000000000E-002   -1.804805006299910E-010
  1.260000000000000E-002   -1.638255496592923E-010
  1.270000000000000E-002   -1.370587320466708E-010
  1.280000000000000E-002   -1.011124579202006E-010
  1.290000000000000E-002   -5.748398705931911E-011
  1.300000000000000E-002   -8.167165530387460E-012
  1.310000000000000E-002    4.444802065026938E-011
  1.320000000000000E-002    9.770213870755191E-011
  1.330000000000000E-002    1.488115664261572E-010
  1.340000000000000E-002    1.950231959707750E-010
  1.350000000000000E-002    2.337689775154017E-010
  1.360000000000000E-002    2.628107194386680E-010
  1.370000000000000E-002    2.803659531994245E-010
  1.380000000000000E-002    2.852077917029772E-010
  1.390000000000000E-002    2.767326564222193E-010
  1.400000000000000E-002    2.549925271106897E-010
  1.410000000000000E-002    2.206905404319159E-010
  1.420000000000000E-002    1.751411595108643E-010
  1.430000000000000E-002    1.201982061173992E-010
  1.440000000000000E-002    5.815604783133196E-011
  1.450000000000000E-002   -8.369648899806870E-012
  1.460000000000000E-002   -7.657420231461080E-011
  1.470000000000000E-002   -1.436015165261041E-010
  1.480000000000000E-002   -2.066795979214017E-010
  1.490000000000000E-002   -2.632472252041588E-010
  1.500000000000000E-002   -3.110659802748347E-010
  1.510000000000000E-002   -3.483129556498213E-010
  1.520000000000000E-002   -3.736508882344871E-010
  1.530000000000000E-002   -3.862736813372218E-010
  1.540000000000000E-002   -3.859262691808231E-010
  1.550000000000000E-002   -3.728988865474712E-010
  1.560000000000000E-002   -3.479965283161270E-010
  1.570000000000000E-002   -3.124849471515708E-010
  1.580000000000000E-002   -2.680149984476016E-010
  1.590000000000000E-002   -2.165277587739055E-010
  1.600000000000000E-002   -1.601432869291531E-010
  1.610000000000000E-002   -1.010362409145314E-010
  1.620000000000000E-002   -4.130291213827796E-011
  1.630000000000000E-002    1.717524385469678E-011
  1.640000000000000E-002    7.286518081640790E-011
  1.650000000000000E-002    1.247055865609788E-010
  1.660000000000000E-002    1.722113099872509E-010
  1.670000000000000E-002    2.155500127173913E-010
  1.680000000000000E-002    2.555811937306608E-010
  1.690000000000000E-002    2.938491014916865E-010
  1.700000000000000E-002    3.325215062493519E-010
  1.710000000000000E-002    3.742690757831430E-010
  1.720000000000000E-002    4.220829571164940E-010
  1.730000000000000E-002    4.790327525428831E-010
  1.740000000000000E-002    5.479706629321089E-010
  1.750000000000000E-002    6.311945838802148E-010
  1.760000000000000E-002    7.300861980800804E-010
  1.770000000000000E-002    8.447459761091050E-010
  1.780000000000000E-002    9.736507180435360E-010
  1.790000000000000E-002    1.113361387036402E-009
  1.800000000000000E-002    1.258310586284136E-009
  1.810000000000000E-002    1.400696122546447E-009
  1.820000000000000E-002    1.530505909414725E-009
  1.830000000000000E-002    1.635691335358924E-009
  1.840000000000000E-002    1.702501233809669E-009
  1.850000000000000E-002    1.715976318702681E-009
  1.860000000000000E-002    1.660596868460738E-009
  1.870000000000000E-002    1.521063671126721E-009