 -4.000000000000000E-002    0.000000000000000E+000
 -3.990000000000000E-002    0.000000000000000E+000
 -3.980000000000000E-002    0.000000000000000E+000
 -3.970000000000000E-002    0.000000000000000E+000
 -3.960000000000000E-002    0.000000000000000E+000
 -3.950000000000000E-002    0.000000000000000E+000
 -3.940000000000000E-002    0.000000000000000E+000
 -3.930000000000000E-002    0.000000000000000E+000
 -3.920000000000000E-002    1.435355250725516E-031
 -3.910000000000000E-002    5.150013212331403E-030
 -3.900000000000000E-002    6.797713241133800E-029
 -3.890000000000000E-002    5.439744533747785E-028
 -3.880000000000000E-002    3.146187858834048E-027
 -3.870000000000000E-002    1.434822977461650E-026
 -3.860000000000000E-002    5.425777663261277E-026
 -3.850000000000000E-002    1.755330789767280E-025
 -3.840000000000000E-002    4.954538105818394E-025
 -3.830000000000000E-002    1.233551476496506E-024
 -3.820000000000000E-002    2.716327044564780E-024
 -3.810000000000000E-002    5.245263340697765E-024
 -3.800000000000000E-002    8.611895812735384E-024
 -3.790000000000000E-002    1.088663334608464E-023
 -3.780000000000000E-002    5.940439176786031E-024
 -3.770000000000000E-002   -2.092624746524086E-023
 -3.760000000000000E-002   -9.970307611514015E-023
 -3.750000000000000E-002   -2.845155400729250E-022
 -3.740000000000000E-002   -6.628860625218872E-022
 -3.730000000000000E-002   -1.361119790309838E-021
 -3.720000000000000E-002   -2.537795575843205E-021
 -3.710000000000000E-002   -4.352786664194172E-021
 -3.700000000000000E-002   -6.894870149638480E-021
 -3.690000000000000E-002   -1.004872301950920E-020
 -3.680000000000000E-002   -1.328481584193143E-020
 -3.670000000000000E-002   -1.536701990879716E-020
 -3.660000000000000E-002   -1.399661800303749E-020
 -3.650000000000000E-002   -5.450397014617073E-021
 -3.640000000000000E-002    1.567464856033307E-020
 -3.630000000000000E-002    5.643175554870859E-020
 -3.620000000000000E-002    1.249647987968168E-019
 -3.610000000000000E-002    2.291255008949630E-019
 -3.600000000000000E-002    3.739705953641348E-019
 -3.590000000000000E-002    5.579161436000485E-019
 -3.580000000000000E-002    7.675110351560981E-019
 -3.570000000000000E-002    9.711151357434681E-019
 -3.560000000000000E-002    1.112236960886482E-018
 -3.550000000000000E-002    1.103883138784793E-018
 -3.540000000000000E-002    8.259322316615049E-019
 -3.530000000000000E-002    1.281540871475728E-019
 -3.520000000000000E-002   -1.158109794790451E-018
 -3.510000000000000E-002   -3.196611963889351E-018
 -3.500000000000000E-002   -6.108907862378149E-018
 -3.490000000000000E-002   -9.922328867964957E-018
 -3.480000000000000E-002   -1.450497025392474E-017
 -3.470000000000000E-002   -1.949296564021747E-017
 -3.460000000000000E-002   -2.421962949877190E-017
 -3.450000000000000E-002   -2.766068645573792E-017
 -3.440000000000000E-002   -2.841412147999921E-017
 -3.430000000000000E-002   -2.473611922440738E-017
 -3.420000000000000E-002   -1.465502567264711E-017
 -3.410000000000000E-002    3.817884414937220E-018
 -3.400000000000000E-002    3.236994771389171E-017
 -3.390000000000000E-002    7.196327790925866E-017
 -3.380000000000000E-002    1.223261866171676E-016
 -3.370000000000000E-002    1.814032687774190E-016
 -3.360000000000000E-002    2.448323970507036E-016
 -3.350000000000000E-002    3.055407296150425E-016
 -3.340000000000000E-002    3.535706523925609E-016
 -3.330000000000000E-002    3.762549953937334E-016
 -3.320000000000000E-002    3.588546373460158E-016
 -3.310000000000000E-002    2.857457033417811E-016
 -3.300000000000000E-002    1.421956423593546E-016
 -3.290000000000000E-002   -8.330275002091576E-017
 -3.280000000000000E-002   -3.962600507418471E-016
 -3.270000000000000E-002   -7.932045812664637E-016
 -3.260000000000000E-002   -1.258808675572953E-015
 -3.250000000000000E-002   -1.763544673922395E-015
 -3.240000000000000E-002   -2.262350025146806E-015
 -3.230000000000000E-002   -2.694796124760764E-015
 -3.220000000000000E-002   -2.987208986520726E-015
 -3.210000000000000E-002   -3.057070019101983E-015
 -3.200000000000000E-002   -2.819830047071677E-015
 -3.190000000000000E-002   -2.198002046861152E-015
 -3.180000000000000E-002   -1.132078909543057E-015
 -3.170000000000000E-002    4.075210768322639E-016
 -3.160000000000000E-002    2.408611617037840E-015
 -3.150000000000000E-002    4.806896874492548E-015
 -3.140000000000000E-002    7.478693122025397E-015
 -3.130000000000000E-002    1.023828584796425E-014
 -3.120000000000000E-002    1.284130853318797E-014
 -3.110000000000000E-002    1.499515210525884E-014
 -3.100000000000000E-002    1.637681903157945E-014
 -3.090000000000000E-002    1.665789311129156E-014
 -3.080000000000000E-002    1.553542402392517E-014
 -3.070000000000000E-002    1.276664774543851E-014
 -3.060000000000000E-002    8.204667803484020E-015
 -3.050000000000000E-002    1.831599844512014E-015
 -3.040000000000000E-002   -6.214619262996673E-015
 -3.030000000000000E-002   -1.562349073160373E-014
 -3.020000000000000E-002   -2.590851920186199E-014
 -3.010000000000000E-002   -3.641937379650899E-014
 -3.000000000000000E-002   -4.637064418181562E-014
 -2.990000000000000E-002   -5.488657710514969E-014
 -2.980000000000000E-002   -6.105952796383983E-014
 -2.970000000000000E-002   -6.401817859049426E-014
 -2.960000000000000E-002   -6.300031991470596E-014
 -2.950000000000000E-002   -5.742406840129724E-014
 -2.940000000000000E-002   -4.695119639787587E-014
 -2.930000000000000E-002   -3.153671014377079E-014
 -2.920000000000000E-002   -1.145993890619118E-014
 -2.910000000000000E-002    1.266582640313844E-014
 -2.900000000000000E-002    3.990603343477896E-014
 -2.890000000000000E-002    6.903856045009058E-014
 -2.880000000000000E-002    9.860510916453302E-014
 -2.870000000000000E-002    1.269754780492728E-013
 -2.860000000000000E-002    1.524192954723328E-013
 -2.850000000000000E-002    1.731800601359756E-013
 -2.840000000000000E-002    1.875474395459929E-013
 -2.830000000000000E-002    1.939258650293510E-013
 -2.820000000000000E-002    1.908996506646035E-013
 -2.810000000000000E-002    1.772973834630846E-013
 -2.800000000000000E-002    1.522597220241803E-013
 -2.790000000000000E-002    1.153154250703354E-013
 -2.780000000000000E-002    6.646913990383177E-014
 -2.770000000000000E-002    6.301618559798622E-015
 -2.760000000000000E-002   -6.392189768567136E-014
 -2.750000000000000E-002   -1.421451655942120E-013
 -2.740000000000000E-002   -2.254331941966401E-013
 -2.730000000000000E-002   -3.099256440133319E-013
 -2.720000000000000E-002   -3.908579639452258E-013
 -2.710000000000000E-002   -4.626770943328991E-013
 -2.700000000000000E-002   -5.192745584364962E-013
 -2.690000000000000E-002   -5.543507863146119E-013
 -2.680000000000000E-002   -5.619093392371880E-013
 -2.670000000000000E-002   -5.368615063382023E-013
 -2.660000000000000E-002   -4.756996316149730E-013
 -2.650000000000000E-002   -3.771751409047519E-013
 -2.640000000000000E-002   -2.428998489838428E-013
 -2.630000000000000E-002   -7.777559943008485E-014
 -2.620000000000000E-002    1.098431662388878E-013
 -2.610000000000000E-002    3.083390706534878E-013
 -2.600000000000000E-002    5.034323664519640E-013
 -2.590000000000000E-002    6.792117286998476E-013
 -2.580000000000000E-002    8.195613732582945E-013
 -2.570000000000000E-002    9.098924017237152E-013
 -2.560000000000000E-002    9.390255422276574E-013
 -2.550000000000000E-002    9.010187340181451E-013
 -2.540000000000000E-002    7.966974327186579E-013
 -2.530000000000000E-002    6.346320414844054E-013
 -2.520000000000000E-002    4.313271646746662E-013
 -2.510000000000000E-002    2.104408183880850E-013
 -2.500000000000000E-002    9.421864990931272E-016
 -2.490000000000000E-002   -1.657638964838884E-013
 -2.480000000000000E-002   -2.595778833545038E-013
 -2.470000000000000E-002   -2.559998896017839E-013
 -2.460000000000000E-002   -1.405290342420863E-013
 -2.450000000000000E-002    8.737720138220323E-014
 -2.440000000000000E-002    4.113785809598843E-013
 -2.430000000000000E-002    7.969396294641490E-013
 -2.420000000000000E-002    1.192108139536534E-012
 -2.410000000000000E-002    1.530687928231917E-012
 -2.400000000000000E-002    1.737863898731274E-012
 -2.390000000000000E-002    1.738038266107111E-012
 -2.380000000000000E-002    1.464317009136710E-012
 -2.370000000000000E-002    8.687796209817059E-013
 -2.360000000000000E-002   -6.758595367778190E-014
 -2.350000000000000E-002   -1.326556236140757E-012
 -2.340000000000000E-002   -2.847247750320368E-012
 -2.330000000000000E-002   -4.524757697847379E-012
 -2.320000000000000E-002   -6.213734058654014E-012
 -2.310000000000000E-002   -7.737292835478945E-012
 -2.300000000000000E-002   -8.901119579850770E-012
 -2.290000000000000E-002   -9.511962782281845E-012
 -2.280000000000000E-002   -9.399065479945489E-012
 -2.270000000000000E-002   -8.436528146535173E-012
 -2.260000000000000E-002   -6.564178167073998E-012
 -2.250000000000000E-002   -3.804335380183747E-012
 -2.240000000000000E-002   -2.719679225464852E-013
 -2.230000000000000E-002    3.823856160031828E-012
 -2.220000000000000E-002    8.188600013459268E-012
 -2.210000000000000E-002    1.246138086387980E-011
 -2.200000000000000E-002    1.624383363255879E-011
 -2.190000000000000E-002    1.913674275330839E-011
 -2.180000000000000E-002    2.078135043262413E-011
 -2.170000000000000E-002    2.090129290371814E-011
 -2.160000000000000E-002    1.934057562180178E-011
 -2.150000000000000E-002    1.609286372759422E-011
 -2.140000000000000E-002    1.131783043657633E-011
 -2.130000000000000E-002    5.341251310605735E-012
 -2.120000000000000E-002   -1.362967831714142E-012
 -2.110000000000000E-002   -8.208791685574830E-012
 -2.100000000000000E-002   -1.455000597590464E-011
 -2.090000000000000E-002   -1.974394000753161E-011
 -2.080000000000000E-002   -2.322105000069753E-011
 -2.070000000000000E-002   -2.455309287329457E-011
 -2.060000000000000E-002   -2.351204979897668E-011
 -2.050000000000000E-002   -2.011220726019224E-011
 -2.040000000000000E-002   -1.462891963388844E-011
 -2.030000000000000E-002   -7.589624484400284E-012
 -2.020000000000000E-002    2.645981539242345E-013
 -2.010000000000000E-002    8.045396504180420E-012
 -2.000000000000000E-002    1.480659114867178E-011
 -1.990000000000000E-002    1.964863661939171E-011
 -1.980000000000000E-002    2.182758029605973E-011
 -1.970000000000000E-002    2.085639703455215E-011
 -1.960000000000000E-002    1.658626160431520E-011
 -1.950000000000000E-002    9.256439445951079E-012
 -1.940000000000000E-002   -4.960578028556674E-013
 -1.930000000000000E-002   -1.167211349759646E-011
 -1.920000000000000E-002   -2.299182971700357E-011
 -1.910000000000000E-002   -3.301666914712949E-011
 -1.900000000000000E-002   -4.030243657577420E-011
 -1.890000000000000E-002   -4.356861906091150E-011
 -1.880000000000000E-002   -4.186629893664084E-011
 -1.870000000000000E-002   -3.472532391619164E-011
 -1.860000000000000E-002   -2.226188291681610E-011
 -1.850000000000000E-002   -5.230326192912790E-012
 -1.840000000000000E-002    1.499224908306144E-011
 -1.830000000000000E-002    3.649359841510636E-011
 -1.820000000000000E-002    5.698347343842644E-011
 -1.810000000000000E-002    7.400969082181830E-011
 -1.800000000000000E-002    8.521491132705043E-011
 -1.790000000000000E-002    8.860970529931931E-011
 -1.780000000000000E-002    8.283348524346575E-011
 -1.770000000000000E-002    6.737340342007923E-011
 -1.760000000000000E-002    4.271348834146365E-011
 -1.750000000000000E-002    1.039104544165778E-011
 -1.740000000000000E-002   -2.705444106357463E-011
 -1.730000000000000E-002   -6.624451985874641E-011
 -1.720000000000000E-002   -1.032300786455755E-010
 -1.710000000000000E-002   -1.338457710967036E-010
 -1.700000000000000E-002   -1.541211734239318E-010
 -1.690000000000000E-002   -1.607103676052997E-010
 -1.680000000000000E-002   -1.512969533757892E-010
 -1.670000000000000E-002   -1.249303616451785E-010
 -1.660000000000000E-002   -8.225301542636264E-011
 -1.650000000000000E-002   -2.558622137155856E-011
 -1.640000000000000E-002    4.114551049528140E-011
 -1.630000000000000E-002    1.126565722490620E-010
 -1.620000000000000E-002    1.826971806036141E-010
 -1.610000000000000E-002    2.445767212472106E-010
 -1.600000000000000E-002    2.917703233993765E-010
 -1.590000000000000E-002    3.185541225793271E-010
 -1.580000000000000E-002    3.206078712077070E-010
 -1.570000000000000E-002    2.955231806482074E-010
 -1.560000000000000E-002    2.431610892563313E-010
 -1.550000000000000E-002    1.658140438189480E-010
 -1.540000000000000E-002    6.814491352869584E-011
 -1.530000000000000E-002   -4.310434468144318E-011
 -1.520000000000000E-002   -1.596184710244769E-010
 -1.510000000000000E-002   -2.721915548401499E-010
 -1.500000000000000E-002   -3.715282882158836E-010
 -1.490000000000000E-002   -4.490920143733085E-010
 -1.480000000000000E-002   -4.979174739368348E-010
 -1.470000000000000E-002   -5.133075548979004E-010
 -1.460000000000000E-002   -4.933393242938247E-010
 -1.450000000000000E-002   -4.391211843603754E-010
 -1.440000000000000E-002   -3.547649630781321E-010
 -1.430000000000000E-002   -2.470639240674202E-010
 -1.420000000000000E-002   -1.248972039112147E-010
 -1.410000000000000E-002    1.590175670386848E-012
 -1.400000000000000E-002    1.219571016019771E-010
 -1.390000000000000E-002    2.264928715526011E-010
 -1.380000000000000E-002    3.071968355321269E-010
 -1.370000000000000E-002    3.586078982485611E-010
 -1.360000000000000E-002    3.783911749951096E-010
 -1.350000000000000E-002    3.676103682128950E-010
 -1.340000000000000E-002    3.306436328508730E-010
 -1.330000000000000E-002    2.747365540631978E-010
 -1.320000000000000E-002    2.092237752888871E-010
 -1.310000000000000E-002    1.444881616178413E-010
 -1.300000000000000E-002    9.075779996128712E-011
 -1.290000000000000E-002    5.686485441484423E-011
 -1.280000000000000E-002    4.910125025278633E-011
 -1.270000000000000E-002    7.030415310391037E-011
 -1.260000000000000E-002    1.192879826198867E-010
 -1.250000000000000E-002    1.907097515865366E-010
 -1.240000000000000E-002    2.754133894158506E-010
 -1.230000000000000E-002    3.612498633874962E-010
 -1.220000000000000E-002    4.343191162610499E-010
 -1.210000000000000E-002    4.805285980768884E-010
 -1.200000000000000E-002    4.873222341390535E-010
 -1.190000000000000E-002    4.454032457128541E-010
 -1.180000000000000E-002    3.502601964987324E-010
 -1.170000000000000E-002    2.033119306969931E-010
 -1.160000000000000E-002    1.251049204810320E-011
 -1.150000000000000E-002   -2.077138838751700E-010
 -1.140000000000000E-002   -4.372239630978841E-010
 -1.130000000000000E-002   -6.516506730455454E-010
 -1.120000000000000E-002   -8.244875990499092E-010
 -1.110000000000000E-002   -9.296485037403895E-010
 -1.100000000000000E-002   -9.442716015482155E-010
 -1.090000000000000E-002   -8.515123299030148E-010
 -1.080000000000000E-002   -6.430439775038427E-010
 -1.070000000000000E-002   -3.209937411822987E-010
 -1.060000000000000E-002    1.009250310357172E-010
 -1.050000000000000E-002    5.972641473213479E-010
 -1.040000000000000E-002    1.131773213434703E-009
 -1.030000000000000E-002    1.659412354159210E-009
 -1.020000000000000E-002    2.129343496264351E-009
 -1.010000000000000E-002    2.488695358590779E-009
 -1.000000000000000E-002    2.686811727365700E-009
 -9.899999999999999E-003    2.679627701216465E-009
 -9.800000000000000E-003    2.433787461615472E-009
 -9.699999999999999E-003    1.930117730753568E-009
 -9.599999999999999E-003    1.166112762461361E-009
 -9.500000000000000E-003    1.571606559765797E-010
 -9.399999999999999E-003   -1.063650192940932E-009
 -9.299999999999999E-003   -2.447178692731254E-009
 -9.200000000000000E-003   -3.931234022870607E-009
 -9.099999999999999E-003   -5.444696679376454E-009
 -8.999999999999999E-003   -6.912406717623049E-009
 -8.900000000000000E-003   -8.260385071894436E-009
 -8.799999999999999E-003   -9.420902337503255E-009
 -8.699999999999999E-003   -1.033691577698050E-008
 -8.600000000000000E-003   -1.096544648226097E-008
 -8.499999999999999E-003   -1.127955695296100E-008
 -8.399999999999999E-003   -1.126873870892379E-008
 -8.300000000000000E-003   -1.093767271321870E-008
 -8.199999999999999E-003   -1.030350379708488E-008
 -8.100000000000000E-003   -9.391938360220017E-009
 -8.000000000000000E-003   -8.232624734634436E-009
 -7.899999999999999E-003   -6.854375975035063E-009
 -7.800000000000000E-003   -5.280851465132899E-009
 -7.699999999999999E-003   -3.527305638131137E-009
 -7.599999999999999E-003   -1.598937421550271E-009
 -7.499999999999999E-003    5.087407772690622E-010
 -7.399999999999999E-003    2.807302786761617E-009
 -7.299999999999999E-003    5.310543350859270E-009
 -7.199999999999999E-003    8.027590314450161E-009
 -7.100000000000000E-003    1.095437109823791E-008
 -6.999999999999999E-003    1.406408855732751E-008
 -6.899999999999999E-003    1.729744670096515E-008
 -6.800000000000000E-003    2.055340687294783E-008
 -6.699999999999999E-003    2.368129704841507E-008
 -6.599999999999999E-003    2.647496988680561E-008
 -6.499999999999999E-003    2.866953855194157E-008
 -6.399999999999999E-003    2.994101152987014E-008
 -6.299999999999999E-003    2.990889477958179E-008
 -6.199999999999999E-003    2.814138338735261E-008
 -6.100000000000000E-003    2.416288140913894E-008
 -5.999999999999999E-003    1.746287664764344E-008
 -5.899999999999999E-003    7.505430330558050E-009
 -5.800000000000000E-003   -6.261777402260880E-009
 -5.699999999999999E-003   -2.439968924817577E-008
 -5.599999999999999E-003   -4.747228596488642E-008
 -5.499999999999999E-003   -7.604372010996722E-008
 -5.399999999999999E-003   -1.106787668694553E-007
 -5.299999999999999E-003   -1.519460770002570E-007
 -5.199999999999999E-003   -2.004244190547444E-007
 -5.099999999999999E-003   -2.567108440309653E-007
 -4.999999999999999E-003   -3.214304107940222E-007
 -4.899999999999999E-003   -3.952456085375409E-007
 -4.799999999999999E-003   -4.788650529354025E-007
 -4.699999999999999E-003   -5.730496841393114E-007
 -4.599999999999999E-003   -6.786168523533746E-007
 -4.499999999999999E-003   -7.964390595648186E-007
 -4.399999999999999E-003   -9.274400400972681E-007
 -4.299999999999999E-003   -1.072586108390368E-006
 -4.199999999999999E-003   -1.232874764389535E-006
 -4.099999999999999E-003   -1.409320078588908E-006
 -3.999999999999999E-003   -1.602936690410474E-006
 -3.899999999999999E-003   -1.814725340112936E-006
 -3.799999999999999E-003   -2.045658625912111E-006
 -3.699999999999999E-003   -2.296670798858125E-006
 -3.599999999999999E-003   -2.568651814814532E-006
 -3.499999999999999E-003   -2.862447115098764E-006
 -3.399999999999999E-003   -3.178863375821820E-006
 -3.299999999999999E-003   -3.518679573572573E-006
 -3.199999999999999E-003   -3.882666662988441E-006
 -3.099999999999999E-003   -4.271607123462220E-006
 -2.999999999999999E-003   -4.686320663028753E-006
 -2.899999999999999E-003   -5.127692411628065E-006
 -2.799999999999999E-003   -5.596698289547955E-006
 -2.699999999999999E-003   -6.094429229192637E-006
 -2.599999999999999E-003   -6.622111840504387E-006
 -2.499999999999999E-003   -7.181122659620862E-006
 -2.399999999999999E-003   -7.773000156112353E-006
 -2.299999999999999E-003   -8.399444421131913E-006
 -2.199999999999999E-003   -9.062315887304933E-006
 -2.099999999999999E-003   -9.763627159788649E-006
 -1.999999999999999E-003   -1.050553107934823E-005
 -1.899999999999999E-003   -1.129030370472708E-005
 -1.799999999999999E-003   -1.212033272188225E-005
 -1.699999999999999E-003   -1.299810237567468E-005
 -1.599999999999999E-003   -1.392618206456502E-005
 -1.499999999999999E-003   -1.490722453034462E-005
 -1.399999999999999E-003   -1.594396513684922E-005
 -1.299999999999999E-003   -1.703922810961625E-005
 -1.199999999999999E-003   -1.819593915156257E-005
 -1.099999999999999E-003   -1.941714760953213E-005
 -9.999999999999989E-004   -2.070604274401527E-005
 -8.999999999999990E-004   -2.206598910219295E-005
 -7.999999999999990E-004   -2.350053936383515E-005
 -6.999999999999989E-004   -2.501347489848667E-005
 -5.999999999999990E-004   -2.660881898052577E-005
 -4.999999999999989E-004   -2.829086005031203E-005
 -3.999999999999989E-004   -3.006416188968519E-005
 -2.999999999999989E-004   -3.193357502814489E-005
 -1.999999999999989E-004   -3.390424443850854E-005
 -9.999999999999892E-005   -3.598159963107605E-005
  1.084202172485504E-018   -3.817135676889303E-005
  1.000000000000011E-004   -4.047951080611278E-005
  2.000000000000011E-004   -4.291233302921290E-005
  3.000000000000011E-004   -4.547637057484129E-005
  4.000000000000011E-004   -4.817844671070719E-005
  5.000000000000011E-004   -5.102566399381146E-005
  6.000000000000011E-004   -5.402542442868188E-005
  7.000000000000011E-004   -5.718544808595600E-005
  8.000000000000011E-004   -6.051380275912416E-005
  9.000000000000012E-004   -6.401893262622800E-005
  1.000000000000001E-003   -6.770969884605928E-005
  1.100000000000001E-003   -7.159541514547344E-005
  1.200000000000001E-003   -7.568588626116991E-005
  1.300000000000001E-003   -7.999144239033204E-005
  1.400000000000001E-003   -8.452297520588668E-005
  1.500000000000001E-003   -8.929195365352526E-005
  1.600000000000001E-003   -9.431046214182433E-005
  1.700000000000001E-003   -9.959118424298530E-005
  1.800000000000001E-003   -1.051474256291228E-004
  1.900000000000001E-003   -1.109931154344402E-004
  2.000000000000001E-003   -1.171427986109620E-004
  2.100000000000001E-003   -1.236116238529455E-004
  2.200000000000001E-003   -1.304153516717324E-004
  2.300000000000001E-003   -1.375703598958118E-004
  2.400000000000001E-003   -1.450936316530259E-004
  2.500000000000001E-003   -1.530027719100576E-004
  2.600000000000001E-003   -1.613160534786895E-004
  2.700000000000001E-003   -1.700524164699277E-004
  2.800000000000001E-003   -1.792315293989403E-004
  2.900000000000001E-003   -1.888738092645340E-004
  3.000000000000001E-003   -1.990005114550595E-004
  3.100000000000001E-003   -2.096337530656210E-004
  3.200000000000001E-003   -2.207965421383307E-004
  3.300000000000001E-003   -2.325128802815109E-004
  3.400000000000001E-003   -2.448077476494626E-004
  3.500000000000001E-003   -2.577071719932297E-004
  3.600000000000001E-003   -2.712382527689589E-004
  3.700000000000001E-003   -2.854291409674834E-004
  3.800000000000001E-003   -3.003091084876064E-004
  3.900000000000001E-003   -3.159085004261632E-004
  4.000000000000001E-003   -3.322587478378992E-004
  4.100000000000001E-003   -3.493924029423847E-004
  4.200000000000001E-003   -3.673430725595443E-004
  4.300000000000001E-003   -3.861454929571548E-004
  4.400000000000001E-003   -4.058355327701901E-004
  4.500000000000001E-003   -4.264502549091569E-004
  4.600000000000002E-003   -4.480278960676094E-004
  4.700000000000001E-003   -4.706080031396129E-004
  4.800000000000001E-003   -4.942314188039854E-004
  4.900000000000002E-003   -5.189404495624357E-004
  5.000000000000001E-003   -5.447788850052510E-004
  5.100000000000001E-003   -5.717920501510008E-004
  5.200000000000001E-003   -6.000269592903499E-004
  5.300000000000002E-003   -6.295322915670936E-004
  5.400000000000001E-003   -6.603584876631572E-004
  5.500000000000001E-003   -6.925578545904536E-004
  5.600000000000002E-003   -7.261844787024746E-004
  5.700000000000001E-003   -7.612941530766789E-004
  5.800000000000001E-003   -7.979445828511522E-004
  5.900000000000002E-003   -8.361953068433106E-004
  6.000000000000001E-003   -8.761074354242859E-004
  6.100000000000001E-003   -9.177439498858932E-004
  6.200000000000002E-003   -9.611694322321887E-004
  6.300000000000002E-003   -1.006450183681199E-003
  6.400000000000001E-003   -1.053654247930841E-003
  6.500000000000001E-003   -1.102851182314565E-003
  6.600000000000002E-003   -1.154112512791028E-003
  6.700000000000001E-003   -1.207511427360554E-003
  6.800000000000001E-003   -1.263122951381173E-003
  6.900000000000002E-003   -1.321024179100374E-003
  7.000000000000001E-003   -1.381294227399186E-003
  7.100000000000001E-003   -1.444014418208841E-003
  7.200000000000002E-003   -1.509268355706001E-003
  7.300000000000002E-003   -1.577141843654346E-003
  7.400000000000001E-003   -1.647723235603169E-003
  7.500000000000001E-003   -1.721103518650271E-003
  7.600000000000002E-003   -1.797376058830686E-003
  7.700000000000001E-003   -1.876636516651598E-003
  7.800000000000001E-003   -1.958983272531677E-003
  7.900000000000001E-003   -2.044516934987971E-003
  8.000000000000002E-003   -2.133340387840402E-003
  8.100000000000001E-003   -2.225558864935627E-003
  8.200000000000001E-003   -2.321279579970109E-003
  8.300000000000002E-003   -2.420611919221105E-003
  8.400000000000001E-003   -2.523666860193949E-003
  8.500000000000002E-003   -2.630557644777549E-003
  8.600000000000002E-003   -2.741399160817662E-003
  8.700000000000001E-003   -2.856308274474438E-003
  8.800000000000002E-003   -2.975403413335433E-003
  8.900000000000002E-003   -3.098805446545115E-003
  9.000000000000001E-003   -3.226636463311205E-003
  9.100000000000002E-003   -3.359020965001487E-003
  9.200000000000002E-003   -3.496085412280558E-003
  9.300000000000001E-003   -3.637958698790723E-003
  9.400000000000002E-003   -3.784771311211669E-003
  9.500000000000001E-003   -3.936656208726940E-003
  9.600000000000001E-003   -4.093748327515270E-003
  9.700000000000002E-003   -4.256185088885546E-003
  9.800000000000001E-003   -4.424104863778794E-003
  9.900000000000001E-003   -4.597648309654198E-003
  1.000000000000000E-002   -4.776957803097359E-003
  1.010000000000000E-002   -4.962177212022891E-003
  1.020000000000000E-002   -5.153451319303691E-003
  1.030000000000000E-002   -5.350925850776641E-003
  1.040000000000000E-002   -5.554747334827842E-003
  1.050000000000000E-002   -5.765062983755422E-003
  1.060000000000000E-002   -5.982020594861597E-003
  1.070000000000000E-002   -6.205767898498094E-003
  1.080000000000000E-002   -6.436453195952644E-003
  1.090000000000000E-002   -6.674224390744157E-003
  1.100000000000000E-002   -6.919229480721027E-003
  1.110000000000000E-002   -7.171616999136577E-003
  1.120000000000000E-002   -7.431534703016891E-003
  1.130000000000000E-002   -7.699130577192745E-003
  1.140000000000000E-002   -7.974552245792802E-003
  1.150000000000000E-002   -8.257947201940561E-003
  1.160000000000000E-002   -8.549461512499546E-003
  1.170000000000000E-002   -8.849241991223248E-003
  1.180000000000000E-002   -9.157432276245115E-003
  1.190000000000000E-002   -9.474177416552538E-003
  1.200000000000000E-002   -9.799618712247131E-003
  1.210000000000000E-002   -1.013389592502730E-002
  1.220000000000000E-002   -1.047714668299680E-002
  1.230000000000000E-002   -1.082950602086715E-002
  1.240000000000000E-002   -1.119110546190364E-002
  1.250000000000000E-002   -1.156207348373064E-002
  1.260000000000000E-002   -1.194253428170159E-002
  1.270000000000000E-002   -1.233260847278595E-002
  1.280000000000000E-002   -1.273241142518857E-002
  1.290000000000000E-002   -1.314205427347607E-002
  1.300000000000000E-002   -1.356164282390891E-002
  1.310000000000000E-002   -1.399127906461485E-002
  1.320000000000000E-002   -1.443105733495503E-002
  1.330000000000000E-002   -1.488106893714405E-002
  1.340000000000000E-002   -1.534139542237864E-002
  1.350000000000000E-002   -1.581211562781581E-002
  1.360000000000000E-002   -1.629329997251953E-002
  1.370000000000000E-002   -1.678501355450490E-002
  1.380000000000000E-002   -1.728731185045608E-002
  1.390000000000000E-002   -1.780024334455129E-002
  1.400000000000000E-002   -1.832384925897287E-002
  1.410000000000000E-002   -1.885815959323083E-002
  1.420000000000000E-002   -1.940319664009337E-002
  1.430000000000000E-002   -1.995897112657203E-002
  1.440000000000000E-002   -2.052548517334255E-002
  1.450000000000000E-002   -2.110272763263475E-002
  1.460000000000000E-002   -2.169067561523223E-002
  1.470000000000000E-002   -2.228929451987495E-002
  1.480000000000000E-002   -2.289853759725059E-002
  1.490000000000000E-002   -2.351834407249962E-002
  1.500000000000000E-002   -2.414864090537517E-002
  1.510000000000000E-002   -2.478934139348907E-002
  1.520000000000000E-002   -2.544034339370140E-002
  1.530000000000000E-002   -2.610152981208765E-002
  1.540000000000000E-002   -2.677276850411419E-002
  1.550000000000000E-002   -2.745391692766055E-002
  1.560000000000000E-002   -2.814481101823139E-002
  1.570000000000000E-002   -2.884527596847014E-002
  1.580000000000000E-002   -2.955511678051386E-002
  1.590000000000000E-002   -3.027411941637086E-002
  1.600000000000000E-002   -3.100205701562531E-002
  1.610000000000000E-002   -3.173868191082285E-002
  1.620000000000000E-002   -3.248372793658134E-002
  1.630000000000000E-002   -3.323690993200270E-002
  1.640000000000000E-002   -3.399792116457855E-002
  1.650000000000000E-002   -3.476643516704584E-002
  1.660000000000000E-002   -3.554210190724501E-002
  1.670000000000000E-002   -3.632455433734351E-002
  1.680000000000000E-002   -3.711340170764131E-002
  1.690000000000000E-002   -3.790822873964092E-002
  1.700000000000000E-002   -3.870859691389292E-002
  1.710000000000000E-002   -3.951405098201056E-002
  1.720000000000000E-002   -4.032410325454776E-002
  1.730000000000000E-002   -4.113825140573384E-002
  1.740000000000000E-002   -4.195596460114265E-002
  1.750000000000000E-002   -4.277669127755644E-002
  1.760000000000000E-002   -4.359985180545112E-002
  1.770000000000000E-002   -4.442484802790668E-002
  1.780000000000000E-002   -4.525105378299121E-002
  1.790000000000000E-002   -4.607781694775063E-002
  1.800000000000000E-002   -4.690446786059710E-002
  1.810000000000000E-002   -4.773030399842218E-002
  1.820000000000000E-002   -4.855460076664867E-002
  1.830000000000000E-002   -4.937660816677868E-002
  1.840000000000000E-002   -5.019554657412346E-002
  1.850000000000000E-002   -5.101061437867796E-002
  1.860000000000000E-002   -5.182098327076497E-002
  1.870000000000000E-002   -5.262579856982517E-002