 -4.000000000000000E-002    0.000000000000000E+000
 -3.990000000000000E-002    0.000000000000000E+000
 -3.980000000000000E-002    0.000000000000000E+000
 -3.970000000000000E-002    0.000000000000000E+000
 -3.960000000000000E-002    0.000000000000000E+000
 -3.950000000000000E-002    0.000000000000000E+000
 -3.940000000000000E-002    0.000000000000000E+000
 -3.930000000000000E-002    0.000000000000000E+000
 -3.920000000000000E-002    0.000000000000000E+000
 -3.910000000000000E-002    0.000000000000000E+000
 -3.900000000000000E-002    0.000000000000000E+000
 -3.890000000000000E-002    0.000000000000000E+000
 -3.880000000000000E-002    0.000000000000000E+000
 -3.870000000000000E-002    1.786959784655607E-042
 -3.860000000000000E-002    4.393821807399875E-041
 -3.850000000000000E-002    5.554362794275951E-040
 -3.840000000000000E-002    4.804689211213379E-039
 -3.830000000000000E-002    3.194084413661697E-038
 -3.820000000000000E-002    1.737639062200773E-037
 -3.810000000000000E-002    8.043955286252100E-037
 -3.800000000000000E-002    3.253223103815793E-036
 -3.790000000000000E-002    1.171105842886816E-035
 -3.780000000000000E-002    3.803852027493820E-035
 -3.770000000000000E-002    1.125997117098405E-034
 -3.760000000000000E-002    3.059618151053099E-034
 -3.750000000000000E-002    7.668466767889485E-034
 -3.740000000000000E-002    1.777256374255747E-033
 -3.730000000000000E-002    3.808285793057676E-033
 -3.720000000000000E-002    7.516246253008658E-033
 -3.710000000000000E-002    1.352938506764137E-032
 -3.700000000000000E-002    2.172085221493195E-032
 -3.690000000000000E-002    2.943545023020322E-032
 -3.680000000000000E-002    2.786383596717737E-032
 -3.670000000000000E-002   -4.460884599125088E-033
 -3.660000000000000E-002   -1.120137405396477E-031
 -3.650000000000000E-002   -3.767397731716625E-031
 -3.640000000000000E-002   -9.350037709481080E-031
 -3.630000000000000E-002   -1.991728313827266E-030
 -3.620000000000000E-002   -3.820487334363703E-030
 -3.610000000000000E-002   -6.730195633399755E-030
 -3.600000000000000E-002   -1.096985992778192E-029
 -3.590000000000000E-002   -1.653546812429607E-029
 -3.580000000000000E-002   -2.284258187889313E-029
 -3.570000000000000E-002   -2.824171047562005E-029
 -3.560000000000000E-002   -2.938958637560775E-029
 -3.550000000000000E-002   -2.055515079777382E-029
 -3.540000000000000E-002    6.963778096378500E-030
 -3.530000000000000E-002    6.501717642609018E-029
 -3.520000000000000E-002    1.679592971011835E-028
 -3.510000000000000E-002    3.307013906146435E-028
 -3.500000000000000E-002    5.650182563499691E-028
 -3.490000000000000E-002    8.738883187129047E-028
 -3.480000000000000E-002    1.244107066240503E-027
 -3.470000000000000E-002    1.638114902727890E-027
 -3.460000000000000E-002    1.986828687991852E-027
 -3.450000000000000E-002    2.186037224950198E-027
 -3.440000000000000E-002    2.099210488932411E-027
 -3.430000000000000E-002    1.568874530387169E-027
 -3.420000000000000E-002    4.364414142312366E-028
 -3.410000000000000E-002   -1.433845560165867E-027
 -3.400000000000000E-002   -4.137245474248918E-027
 -3.390000000000000E-002   -7.734614155881297E-027
 -3.380000000000000E-002   -1.230562733506561E-026
 -3.370000000000000E-002   -1.807374359268505E-026
 -3.360000000000000E-002   -2.561924536800701E-026
 -3.350000000000000E-002   -3.617357364413758E-026
 -3.340000000000000E-002   -5.194522336966889E-026
 -3.330000000000000E-002   -7.636316955731981E-026
 -3.320000000000000E-002   -1.140420382518085E-025
 -3.310000000000000E-002   -1.701859940595642E-025
 -3.300000000000000E-002   -2.490806642370171E-025
 -3.290000000000000E-002   -3.513090724304368E-025
 -3.280000000000000E-002   -4.694159285748588E-025
 -3.270000000000000E-002   -5.819822829740885E-025
 -3.260000000000000E-002   -6.465052542943917E-025
 -3.250000000000000E-002   -5.921202090431252E-025
 -3.240000000000000E-002   -3.140313502805913E-025
 -3.230000000000000E-002    3.275608404484242E-025
 -3.220000000000000E-002    1.500392417473005E-024
 -3.210000000000000E-002    3.380768315033265E-024
 -3.200000000000000E-002    6.117860005607964E-024
 -3.190000000000000E-002    9.778778868735619E-024
 -3.180000000000000E-002    1.427399990995603E-023
 -3.170000000000000E-002    1.926671638713932E-023
 -3.160000000000000E-002    2.407520021296598E-023
 -3.150000000000000E-002    2.758386111349779E-023
 -3.140000000000000E-002    2.818561312780804E-023
 -3.130000000000000E-002    2.378424149557999E-023
 -3.120000000000000E-002    1.188892169814476E-023
 -3.110000000000000E-002   -1.016766509892161E-023
 -3.100000000000000E-002   -4.486306401819544E-023
 -3.090000000000000E-002   -9.396022834813927E-023
 -3.080000000000000E-002   -1.578353371244989E-022
 -3.070000000000000E-002   -2.346981481741716E-022
 -3.060000000000000E-002   -3.197770974668389E-022
 -3.050000000000000E-002   -4.045749626394884E-022
 -3.040000000000000E-002   -4.763277876621704E-022
 -3.030000000000000E-002   -5.178181325840062E-022
 -3.020000000000000E-002   -5.076938938877658E-022
 -3.010000000000000E-002   -4.214269282869231E-022
 -3.000000000000000E-002   -2.330082251530834E-022
 -2.990000000000000E-002    8.257772890272654E-023
 -2.980000000000000E-002    5.461179218181088E-022
 -2.970000000000000E-002    1.170255935534239E-021
 -2.960000000000000E-002    1.955025657958765E-021
 -2.950000000000000E-002    2.882994489639721E-021
 -2.940000000000000E-002    3.914188910100186E-021
 -2.930000000000000E-002    4.980983722147554E-021
 -2.920000000000000E-002    5.983152654471004E-021
 -2.910000000000000E-002    6.783381600187885E-021
 -2.900000000000000E-002    7.203704033107723E-021
 -2.890000000000000E-002    7.023691922139489E-021
 -2.880000000000000E-002    5.981707351199386E-021
 -2.870000000000000E-002    3.781234348746281E-021
 -2.860000000000000E-002    1.050185624141341E-022
 -2.850000000000000E-002   -5.359525300551003E-021
 -2.840000000000000E-002   -1.287983823235938E-020
 -2.830000000000000E-002   -2.261912047010305E-020
 -2.820000000000000E-002   -3.455626873819452E-020
 -2.810000000000000E-002   -4.838519232554427E-020
 -2.800000000000000E-002   -6.339790001573647E-020
 -2.790000000000000E-002   -7.836161953797095E-020
 -2.780000000000000E-002   -9.140740115747997E-020
 -2.770000000000000E-002   -9.995528948424739E-020
 -2.760000000000000E-002   -1.007085163926977E-019
 -2.750000000000000E-002   -8.975413786571046E-020
 -2.740000000000000E-002   -6.280832582042071E-020
 -2.730000000000000E-002   -1.563896619831864E-020
 -2.720000000000000E-002    5.531544502266085E-020
 -2.710000000000000E-002    1.521349998023920E-019
 -2.700000000000000E-002    2.744527437103669E-019
 -2.690000000000000E-002    4.184122822057289E-019
 -2.680000000000000E-002    5.756713687109215E-019
 -2.670000000000000E-002    7.326180055993496E-019
 -2.660000000000000E-002    8.700002206391085E-019
 -2.650000000000000E-002    9.631863427887538E-019
 -2.640000000000000E-002    9.832609870382116E-019
 -2.630000000000000E-002    8.991156096298682E-019
 -2.620000000000000E-002    6.806032558497899E-019
 -2.610000000000000E-002    3.026994548131885E-019
 -2.600000000000000E-002   -2.495535727755910E-019
 -2.590000000000000E-002   -9.757249696034982E-019
 -2.580000000000000E-002   -1.854886177690297E-018
 -2.570000000000000E-002   -2.841457443750145E-018
 -2.560000000000000E-002   -3.862850102106475E-018
 -2.550000000000000E-002   -4.819740231193540E-018
 -2.540000000000000E-002   -5.589696318141345E-018
 -2.530000000000000E-002   -6.034624915080244E-018
 -2.520000000000000E-002   -6.012118011975375E-018
 -2.510000000000000E-002   -5.390279458427281E-018
 -2.500000000000000E-002   -4.065048457865820E-018
 -2.490000000000000E-002   -1.978468052282371E-018
 -2.480000000000000E-002    8.641310142095971E-019
 -2.470000000000000E-002    4.380371685653393E-018
 -2.460000000000000E-002    8.402889733335890E-018
 -2.450000000000000E-002    1.267931218395884E-017
 -2.440000000000000E-002    1.688163591740666E-017
 -2.430000000000000E-002    2.062551397830279E-017
 -2.420000000000000E-002    2.349872072205475E-017
 -2.410000000000000E-002    2.509673210551951E-017
 -2.400000000000000E-002    2.506203968648404E-017
 -2.390000000000000E-002    2.312282581606811E-017
 -2.380000000000000E-002    1.912608529885686E-017
 -2.370000000000000E-002    1.306042942102776E-017
 -2.360000000000000E-002    5.064758963964618E-018
 -2.350000000000000E-002   -4.579340077345855E-018
 -2.340000000000000E-002   -1.547120741325160E-017
 -2.330000000000000E-002   -2.712776577239437E-017
 -2.320000000000000E-002   -3.902755156130528E-017
 -2.310000000000000E-002   -5.065420760779856E-017
 -2.300000000000000E-002   -6.153047208838520E-017
 -2.290000000000000E-002   -7.123386473806128E-017
 -2.280000000000000E-002   -7.938746789767598E-017
 -2.270000000000000E-002   -8.562304788765143E-017
 -2.260000000000000E-002   -8.951923728598535E-017
 -2.250000000000000E-002   -9.052387392718528E-017
 -2.240000000000000E-002   -8.787614045073845E-017
 -2.230000000000000E-002   -8.054934744417753E-017
 -2.220000000000000E-002   -6.723826888146473E-017
 -2.210000000000000E-002   -4.641425498910550E-017
 -2.200000000000000E-002   -1.646629781338301E-017
 -2.190000000000000E-002    2.406348832500197E-017
 -2.180000000000000E-002    7.615568383505902E-017
 -2.170000000000000E-002    1.399235973369536E-016
 -2.160000000000000E-002    2.141988329000502E-016
 -2.150000000000000E-002    2.961503328452528E-016
 -2.140000000000000E-002    3.810069351802720E-016
 -2.130000000000000E-002    4.619577115798656E-016
 -2.120000000000000E-002    5.302978419630616E-016
 -2.110000000000000E-002    5.758700162643352E-016
 -2.100000000000000E-002    5.878210541607450E-016
 -2.090000000000000E-002    5.556534523449209E-016
 -2.080000000000000E-002    4.705048153594009E-016
 -2.070000000000000E-002    3.265415008348221E-016
 -2.060000000000000E-002    1.223112892791683E-016
 -2.050000000000000E-002   -1.381268204314959E-016
 -2.040000000000000E-002   -4.444855749357277E-016
 -2.030000000000000E-002   -7.801154763666019E-016
 -2.020000000000000E-002   -1.122579324546046E-015
 -2.010000000000000E-002   -1.444987371861313E-015
 -2.000000000000000E-002   -1.718053490002241E-015
 -1.990000000000000E-002   -1.912727480997701E-015
 -1.980000000000000E-002   -2.003160188532288E-015
 -1.970000000000000E-002   -1.969672124513293E-015
 -1.960000000000000E-002   -1.801348864064023E-015
 -1.950000000000000E-002   -1.497881004810708E-015
 -1.940000000000000E-002   -1.070317495091297E-015
 -1.930000000000000E-002   -5.405090305522672E-016
 -1.920000000000000E-002    6.082690400983020E-017
 -1.910000000000000E-002    6.972957801140220E-016
 -1.900000000000000E-002    1.330946552240796E-015
 -1.890000000000000E-002    1.926813655610153E-015
 -1.880000000000000E-002    2.457236617706892E-015
 -1.870000000000000E-002    2.905252654520153E-015
 -1.860000000000000E-002    3.266402773854016E-015
 -1.850000000000000E-002    3.548435208320874E-015
 -1.840000000000000E-002    3.768648915549346E-015
 -1.830000000000000E-002    3.948958505519898E-015
 -1.820000000000000E-002    4.109138778077009E-015
 -1.810000000000000E-002    4.259096499026502E-015
 -1.800000000000000E-002    4.391317353491813E-015
 -1.790000000000000E-002    4.474842316502175E-015
 -1.780000000000000E-002    4.452134435485594E-015
 -1.770000000000000E-002    4.240020337189458E-015
 -1.760000000000000E-002    3.735483616731380E-015
 -1.750000000000000E-002    2.826510342717448E-015
 -1.740000000000000E-002    1.407454642003292E-015
 -1.730000000000000E-002   -6.023647226576192E-016
 -1.720000000000000E-002   -3.238854273846029E-015
 -1.710000000000000E-002   -6.474670458795625E-015
 -1.700000000000000E-002   -1.020492419753729E-014
 -1.690000000000000E-002   -1.423980281770929E-014
 -1.680000000000000E-002   -1.830638703355005E-014
 -1.670000000000000E-002   -2.206106877486936E-014
 -1.660000000000000E-002   -2.511277247701756E-014
 -1.650000000000000E-002   -2.705580499994021E-014
 -1.640000000000000E-002   -2.750969872227718E-014
 -1.630000000000000E-002   -2.616217661697064E-014
 -1.620000000000000E-002   -2.281041952481388E-014
 -1.610000000000000E-002   -1.739545949501734E-014
 -1.600000000000000E-002   -1.002476033976704E-014
 -1.590000000000000E-002   -9.790453120532121E-016
 -1.580000000000000E-002    9.298985609218605E-015
 -1.570000000000000E-002    2.023430060716106E-014
 -1.560000000000000E-002    3.116540389125409E-014
 -1.550000000000000E-002    4.140200090630503E-014
 -1.540000000000000E-002    5.028805762554385E-014
 -1.530000000000000E-002    5.726260555653181E-014
 -1.520000000000000E-002    6.191031521298529E-014
 -1.510000000000000E-002    6.399467358516918E-014
 -1.500000000000000E-002    6.346841798396635E-014
 -1.490000000000000E-002    6.045879737709240E-014
 -1.480000000000000E-002    5.522860469638638E-014
 -1.470000000000000E-002    4.811767645933021E-014
 -1.460000000000000E-002    3.947294283939059E-014
 -1.450000000000000E-002    2.957761241015395E-014
 -1.440000000000000E-002    1.859139967414413E-014
 -1.430000000000000E-002    6.513314367334336E-015
 -1.420000000000000E-002   -6.823602031586047E-015
 -1.410000000000000E-002   -2.171994286786487E-014
 -1.400000000000000E-002   -3.853951032959753E-014
 -1.390000000000000E-002   -5.760597406846273E-014
 -1.380000000000000E-002   -7.907775819037000E-014
 -1.370000000000000E-002   -1.028170142923115E-013
 -1.360000000000000E-002   -1.282718955234442E-013
 -1.350000000000000E-002   -1.543923693401088E-013
 -1.340000000000000E-002   -1.795979698928926E-013
 -1.330000000000000E-002   -2.018113603735396E-013
 -1.320000000000000E-002   -2.185647665805233E-013
 -1.310000000000000E-002   -2.271776270448524E-013
 -1.300000000000000E-002   -2.249942556935395E-013
 -1.290000000000000E-002   -2.096613768917322E-013
 -1.280000000000000E-002   -1.794181491029537E-013
 -1.270000000000000E-002   -1.333666913794267E-013
 -1.260000000000000E-002   -7.169028815056563E-014
 -1.250000000000000E-002    4.210291943748133E-015
 -1.240000000000000E-002    9.168480629857102E-014
 -1.230000000000000E-002    1.869175440600004E-013
 -1.220000000000000E-002    2.851268502712268E-013
 -1.210000000000000E-002    3.808654959003178E-013
 -1.200000000000000E-002    4.683959478676670E-013
 -1.190000000000000E-002    5.421036561457394E-013
 -1.180000000000000E-002    5.969072927770987E-013
 -1.170000000000000E-002    6.286234448295890E-013
 -1.160000000000000E-002    6.342486371997130E-013
 -1.150000000000000E-002    6.121313365394572E-013
 -1.140000000000000E-002    5.620197660387822E-013
 -1.130000000000000E-002    4.849876659699679E-013
 -1.120000000000000E-002    3.832551979901600E-013
 -1.110000000000000E-002    2.599359201796905E-013
 -1.100000000000000E-002    1.187501116192989E-013
 -1.090000000000000E-002   -3.625190595499487E-014
 -1.080000000000000E-002   -2.009152495155326E-013
 -1.070000000000000E-002   -3.711227508099659E-013
 -1.060000000000000E-002   -5.428358263491370E-013
 -1.050000000000000E-002   -7.120339291476070E-013
 -1.040000000000000E-002   -8.745696176646028E-013
 -1.030000000000000E-002   -1.025974894259933E-012
 -1.020000000000000E-002   -1.161263873088394E-012
 -1.010000000000000E-002   -1.274786182026254E-012
 -1.000000000000000E-002   -1.360179757792449E-012
 -9.899999999999999E-003   -1.410465658927233E-012
 -9.800000000000000E-003   -1.418308882794546E-012
 -9.699999999999999E-003   -1.376447658050352E-012
 -9.599999999999999E-003   -1.278271390013325E-012
 -9.500000000000000E-003   -1.118503427651504E-012
 -9.399999999999999E-003   -8.939266163182067E-013
 -9.299999999999999E-003   -6.040779101718879E-013
 -9.200000000000000E-003   -2.518348252432707E-013
 -9.099999999999999E-003    1.561774856496210E-013
 -8.999999999999999E-003    6.094146019558667E-013
 -8.900000000000000E-003    1.093512371416300E-012
 -8.799999999999999E-003    1.590666981256270E-012
 -8.699999999999999E-003    2.080279316912135E-012
 -8.600000000000000E-003    2.539823838787046E-012
 -8.499999999999999E-003    2.945882939974414E-012
 -8.399999999999999E-003    3.275282022698379E-012
 -8.300000000000000E-003    3.506248874166462E-012
 -8.199999999999999E-003    3.619538912735319E-012
 -8.100000000000000E-003    3.599465574704941E-012
 -8.000000000000000E-003    3.434801509407502E-012
 -7.899999999999999E-003    3.119520804404480E-012
 -7.800000000000000E-003    2.653370400958350E-012
 -7.699999999999999E-003    2.042262134954213E-012
 -7.599999999999999E-003    1.298477823332100E-012
 -7.499999999999999E-003    4.406758266071975E-013
 -7.399999999999999E-003   -5.063210636437809E-013
 -7.299999999999999E-003   -1.511985816659449E-012
 -7.199999999999999E-003   -2.540827821670445E-012
 -7.100000000000000E-003   -3.553443970678587E-012
 -6.999999999999999E-003   -4.507899044275481E-012
 -6.899999999999999E-003   -5.361427062352056E-012
 -6.800000000000000E-003   -6.072412577154378E-012
 -6.699999999999999E-003   -6.602569940853450E-012
 -6.599999999999999E-003   -6.919190049345351E-012
 -6.499999999999999E-003   -6.997295813757603E-012
 -6.399999999999999E-003   -6.821512068710002E-012
 -6.299999999999999E-003   -6.387457185090372E-012
 -6.199999999999999E-003   -5.702477561782957E-012
 -6.100000000000000E-003   -4.785597720195714E-012
 -5.999999999999999E-003   -3.666621359346301E-012
 -5.899999999999999E-003   -2.384411686468610E-012
 -5.800000000000000E-003   -9.844684234246580E-013
 -5.699999999999999E-003    4.839799587338435E-013
 -5.599999999999999E-003    1.971088181535869E-012
 -5.499999999999999E-003    3.429378108928538E-012
 -5.399999999999999E-003    4.816263512453328E-012
 -5.299999999999999E-003    6.095829100723500E-012
 -5.199999999999999E-003    7.239658105375767E-012
 -5.099999999999999E-003    8.226634670373183E-012
 -4.999999999999999E-003    9.041778335413412E-012
 -4.899999999999999E-003    9.674332694899521E-012
 -4.799999999999999E-003    1.011543798066857E-011
 -4.699999999999999E-003    1.035582394137512E-011
 -4.599999999999999E-003    1.038397838262532E-011
 -4.499999999999999E-003    1.018521289438256E-011
 -4.399999999999999E-003    9.741938663671234E-012
 -4.299999999999999E-003    9.035297988456367E-012
 -4.199999999999999E-003    8.048090358462055E-012
 -4.099999999999999E-003    6.768695327084466E-012
 -3.999999999999999E-003    5.195503437260721E-012
 -3.899999999999999E-003    3.341193054182504E-012
 -3.799999999999999E-003    1.236133516106193E-012
 -3.699999999999999E-003   -1.069798352490388E-012
 -3.599999999999999E-003   -3.507539402304375E-012
 -3.499999999999999E-003   -5.991642484102087E-012
 -3.399999999999999E-003   -8.425552335124703E-012
 -3.299999999999999E-003   -1.070901358045651E-011
 -3.199999999999999E-003   -1.274689777730685E-011
 -3.099999999999999E-003   -1.445843961826569E-011
 -2.999999999999999E-003   -1.578568512023375E-011
 -2.899999999999999E-003   -1.669991603334414E-011
 -2.799999999999999E-003   -1.720491767580321E-011
 -2.699999999999999E-003   -1.733627171168894E-011
 -2.599999999999999E-003   -1.715630257929135E-011
 -2.499999999999999E-003   -1.674484447975135E-011
 -2.399999999999999E-003   -1.618658129317273E-011
 -2.299999999999999E-003   -1.555629541630899E-011
 -2.199999999999999E-003   -1.490376498756367E-011
 -2.099999999999999E-003   -1.424033721752112E-011
 -1.999999999999999E-003   -1.352919613086875E-011
 -1.899999999999999E-003   -1.268113163527520E-011
 -1.799999999999999E-003   -1.155708487313328E-011
 -1.699999999999999E-003   -9.978059879588128E-012
 -1.599999999999999E-003   -7.742129790941513E-012
 -1.499999999999999E-003   -4.647346652478469E-012
 -1.399999999999999E-003   -5.185727334789752E-013
 -1.299999999999999E-003    4.764432560935960E-012
 -1.199999999999999E-003    1.124073957922159E-011
 -1.099999999999999E-003    1.884685998414824E-011
 -9.999999999999989E-004    2.740307033512850E-011
 -8.999999999999990E-004    3.660954573316395E-011
 -7.999999999999990E-004    4.605354529919082E-011
 -6.999999999999989E-004    5.522767122133441E-011
 -5.999999999999990E-004    6.355812517991838E-011
 -4.999999999999989E-004    7.044074183803047E-011
 -3.999999999999989E-004    7.528175561356959E-011
 -2.999999999999989E-004    7.753968477781220E-011
 -1.999999999999989E-004    7.676457522425475E-011
 -9.999999999999892E-005    7.263123421597439E-011
  1.084202172485504E-018    6.496367658259015E-011
  1.000000000000011E-004    5.374910088430927E-011
  2.000000000000011E-004    3.914083414237244E-011
  3.000000000000011E-004    2.145097690971709E-011
  4.000000000000011E-004    1.134510540849469E-012
  5.000000000000011E-004   -2.123258451696480E-011
  6.000000000000011E-004   -4.497820017743620E-011
  7.000000000000011E-004   -6.935905522009406E-011
  8.000000000000011E-004   -9.358327490020111E-011
  9.000000000000012E-004   -1.168291068929486E-010
  1.000000000000001E-003   -1.382592599147483E-010
  1.100000000000001E-003   -1.570316626052529E-010
  1.200000000000001E-003   -1.723085285501404E-010
  1.300000000000001E-003   -1.832662791350867E-010
  1.400000000000001E-003   -1.891093507696014E-010
  1.500000000000001E-003   -1.890906980601755E-010
  1.600000000000001E-003   -1.825409773362337E-010
  1.700000000000001E-003   -1.689072405111745E-010
  1.800000000000001E-003   -1.478003422584796E-010
  1.900000000000001E-003   -1.190484427697720E-010
  2.000000000000001E-003   -8.275235027676238E-011
  2.100000000000001E-003   -3.933711024755405E-011
  2.200000000000001E-003    1.040664256411639E-011
  2.300000000000001E-003    6.529810756699618E-011
  2.400000000000001E-003    1.237643613569113E-010
  2.500000000000001E-003    1.838653881426341E-010
  2.600000000000001E-003    2.433482573575440E-010
  2.700000000000001E-003    2.997299972257220E-010
  2.800000000000001E-003    3.504058449871552E-010
  2.900000000000001E-003    3.927769300010645E-010
  3.000000000000001E-003    4.243888393629742E-010
  3.100000000000001E-003    4.430713966747900E-010
  3.200000000000001E-003    4.470687340787058E-010
  3.300000000000001E-003    4.351496898148409E-010
  3.400000000000001E-003    4.066895208406731E-010
  3.500000000000001E-003    3.617162602405770E-010
  3.600000000000001E-003    3.009182093567411E-010
  3.700000000000001E-003    2.256121701463775E-010
  3.800000000000001E-003    1.376754388917321E-010
  3.900000000000001E-003    3.944770062298341E-011
  4.000000000000001E-003   -6.638883043694852E-011
  4.100000000000001E-003   -1.769406788158730E-010
  4.200000000000001E-003   -2.892357794938539E-010
  4.300000000000001E-003   -4.003466529983943E-010
  4.400000000000001E-003   -5.074958638130833E-010
  4.500000000000001E-003   -6.081370026169178E-010
  4.600000000000002E-003   -7.000065867904618E-010
  4.700000000000001E-003   -7.811466185002590E-010
  4.800000000000001E-003   -8.498977811273952E-010
  4.900000000000002E-003   -9.048682843310893E-010
  5.000000000000001E-003   -9.448832757881635E-010
  5.100000000000001E-003   -9.689217476134879E-010
  5.200000000000001E-003   -9.760483058531422E-010
  5.300000000000002E-003   -9.653476351090461E-010
  5.400000000000001E-003   -9.358686809763685E-010
  5.500000000000001E-003   -8.865846895575793E-010
  5.600000000000002E-003   -8.163754128410151E-010
  5.700000000000001E-003   -7.240357340390702E-010
  5.800000000000001E-003   -6.083147426861760E-010
  5.900000000000002E-003   -4.679885560150050E-010
  6.000000000000001E-003   -3.019685309680300E-010
  6.100000000000001E-003   -1.094455661455719E-010
  6.200000000000002E-003    1.099294504883273E-010
  6.300000000000002E-003    3.558326315858348E-010
  6.400000000000001E-003    6.270271508604746E-010
  6.500000000000001E-003    9.211027774108268E-010
  6.600000000000002E-003    1.234209039618958E-009
  6.700000000000001E-003    1.560796453438011E-009
  6.800000000000001E-003    1.893384203562282E-009
  6.900000000000002E-003    2.222378047749074E-009
  7.000000000000001E-003    2.535959567862195E-009
  7.100000000000001E-003    2.820074870519799E-009
  7.200000000000002E-003    3.058543361878011E-009
  7.300000000000002E-003    3.233310914699071E-009
  7.400000000000001E-003    3.324858534069115E-009
  7.500000000000001E-003    3.312781905223575E-009
  7.600000000000002E-003    3.176538030006986E-009
  7.700000000000001E-003    2.896355900959500E-009
  7.800000000000001E-003    2.454291334679851E-009
  7.900000000000001E-003    1.835403566409015E-009
  8.000000000000002E-003    1.029015874705436E-009
  8.100000000000001E-003    3.002877722402366E-011
  8.200000000000001E-003   -1.159764716142277E-009
  8.300000000000002E-003   -2.530401966922461E-009
  8.400000000000001E-003   -4.062553396949723E-009
  8.500000000000002E-003   -5.726444855250638E-009
  8.600000000000002E-003   -7.480934519222476E-009
  8.700000000000001E-003   -9.272761014884304E-009
  8.800000000000002E-003   -1.103598625271798E-008
  8.900000000000002E-003   -1.269163542880162E-008
  9.000000000000001E-003   -1.414752466749819E-008
  9.100000000000002E-003   -1.529827549646997E-008
  9.200000000000002E-003   -1.602548276937885E-008
  9.300000000000001E-003   -1.619802125209430E-008
  9.400000000000002E-003   -1.567244701728594E-008
  9.500000000000001E-003   -1.429347896453705E-008
  9.600000000000001E-003   -1.189449443547337E-008
  9.700000000000002E-003   -8.298045713360870E-009
  9.800000000000001E-003   -3.316322608635939E-009
  9.900000000000001E-003    3.248451009309985E-009
  1.000000000000000E-002    1.160370191652257E-008
  1.010000000000000E-002    2.196633651783888E-008
  1.020000000000000E-002    3.456269344727390E-008
  1.030000000000000E-002    4.962866325980946E-008
  1.040000000000000E-002    6.740994987592073E-008
  1.050000000000000E-002    8.816254208976809E-008
  1.060000000000000E-002    1.121533001132751E-007
  1.070000000000000E-002    1.396607042403581E-007
  1.080000000000000E-002    1.709757520041373E-007
  1.090000000000000E-002    2.064028882331218E-007
  1.100000000000000E-002    2.462610822437676E-007
  1.110000000000000E-002    2.908848728551668E-007
  1.120000000000000E-002    3.406254442675066E-007
  1.130000000000000E-002    3.958515963394204E-007
  1.140000000000000E-002    4.569505684834011E-007
  1.150000000000000E-002    5.243289907507485E-007
  1.160000000000000E-002    5.984133483668006E-007
  1.170000000000000E-002    6.796506286985215E-007
  1.180000000000000E-002    7.685084677031509E-007
  1.190000000000000E-002    8.654754085971770E-007
  1.200000000000000E-002    9.710610850339784E-007
  1.210000000000000E-002    1.085796166371752E-006
  1.220000000000000E-002    1.210232577213993E-006
  1.230000000000000E-002    1.344943309039657E-006
  1.240000000000000E-002    1.490522760983335E-006
  1.250000000000000E-002    1.647587435022596E-006
  1.260000000000000E-002    1.816776049117548E-006
  1.270000000000000E-002    1.998751032634954E-006
  1.280000000000000E-002    2.194199349440647E-006
  1.290000000000000E-002    2.403834418035792E-006
  1.300000000000000E-002    2.628398370229502E-006
  1.310000000000000E-002    2.868663511396342E-006
  1.320000000000000E-002    3.125436174509034E-006
  1.330000000000000E-002    3.399558821221864E-006
  1.340000000000000E-002    3.691913759681068E-006
  1.350000000000000E-002    4.003426145915119E-006
  1.360000000000000E-002    4.335067968569824E-006
  1.370000000000000E-002    4.687862281991675E-006
  1.380000000000000E-002    5.062886176245297E-006
  1.390000000000000E-002    5.461276290910806E-006
  1.400000000000000E-002    5.884231768537578E-006
  1.410000000000000E-002    6.333018816817471E-006
  1.420000000000000E-002    6.808974524360755E-006
  1.430000000000000E-002    7.313513619359764E-006
  1.440000000000000E-002    7.848131399442376E-006
  1.450000000000000E-002    8.414408068359795E-006
  1.460000000000000E-002    9.014015777887691E-006
  1.470000000000000E-002    9.648721713833346E-006
  1.480000000000000E-002    1.032039439814222E-005
  1.490000000000000E-002    1.103101131694459E-005
  1.500000000000000E-002    1.178266084992216E-005
  1.510000000000000E-002    1.257754974469291E-005
  1.520000000000000E-002    1.341801083386601E-005
  1.530000000000000E-002    1.430650518025075E-005
  1.540000000000000E-002    1.524563088067867E-005
  1.550000000000000E-002    1.623812698972737E-005
  1.560000000000000E-002    1.728687943243385E-005
  1.570000000000000E-002    1.839493058659193E-005
  1.580000000000000E-002    1.956547854838318E-005
  1.590000000000000E-002    2.080188841332282E-005
  1.600000000000000E-002    2.210769737545128E-005
  1.610000000000000E-002    2.348662121508891E-005
  1.620000000000000E-002    2.494256173538130E-005
  1.630000000000000E-002    2.647961392880846E-005
  1.640000000000000E-002    2.810207418164260E-005
  1.650000000000000E-002    2.981445079313334E-005
  1.660000000000000E-002    3.162147363580221E-005
  1.670000000000000E-002    3.352810763626691E-005
  1.680000000000000E-002    3.553955653552393E-005
  1.690000000000000E-002    3.766127906846579E-005
  1.700000000000000E-002    3.989900421175302E-005
  1.710000000000000E-002    4.225873823323951E-005
  1.720000000000000E-002    4.474677966845010E-005
  1.730000000000000E-002    4.736973001004046E-005
  1.740000000000000E-002    5.013450700622440E-005
  1.750000000000000E-002    5.304836033071131E-005
  1.760000000000000E-002    5.611887248959878E-005
  1.770000000000000E-002    5.935397888761795E-005
  1.780000000000000E-002    6.276198223993899E-005
  1.790000000000000E-002    6.635154762510153E-005
  1.800000000000000E-002    7.013172420189271E-005
  1.810000000000000E-002    7.411195229733343E-005
  1.820000000000000E-002    7.830208101699995E-005
  1.830000000000000E-002    8.271236575867602E-005
  1.840000000000000E-002    8.735350556653893E-005
  1.850000000000000E-002    9.223662728787040E-005
  1.860000000000000E-002    9.737333399066061E-005
  1.870000000000000E-002    1.027756881316224E-004