 -4.000000000000000E-002    0.000000000000000E+000
 -3.990000000000000E-002    0.000000000000000E+000
 -3.980000000000000E-002    0.000000000000000E+000
 -3.970000000000000E-002    0.000000000000000E+000
 -3.960000000000000E-002    1.909264608593775E-018
 -3.950000000000000E-002    1.724945719918858E-017
 -3.940000000000000E-002    8.562017213968482E-017
 -3.930000000000000E-002    3.068915901200888E-016
 -3.920000000000000E-002    8.821920616289556E-016
 -3.910000000000000E-002    2.143132227982818E-015
 -3.900000000000000E-002    4.526528144253878E-015
 -3.890000000000000E-002    8.429171429230849E-015
 -3.880000000000000E-002    1.386489163488023E-014
 -3.870000000000000E-002    1.985897876783487E-014
 -3.860000000000000E-002    2.356697024206466E-014
 -3.850000000000000E-002    1.920392799404484E-014
 -3.840000000000000E-002   -2.987872668020945E-015
 -3.830000000000000E-002   -5.734118055890872E-014
 -3.820000000000000E-002   -1.623989912761821E-013
 -3.810000000000000E-002   -3.389719846485763E-013
 -3.800000000000000E-002   -6.060654471915613E-013
 -3.790000000000000E-002   -9.743621663613941E-013
 -3.780000000000000E-002   -1.437392886235122E-012
 -3.770000000000000E-002   -1.961158599360049E-012
 -3.760000000000000E-002   -2.473718303999852E-012
 -3.750000000000000E-002   -2.856997862088835E-012
 -3.740000000000000E-002   -2.943637864167977E-012
 -3.730000000000000E-002   -2.521900044495524E-012
 -3.720000000000000E-002   -1.351310131885532E-012
 -3.710000000000000E-002    8.092772681173175E-013
 -3.700000000000000E-002    4.161167576943557E-012
 -3.690000000000000E-002    8.815077779034770E-012
 -3.680000000000000E-002    1.473488896339713E-011
 -3.670000000000000E-002    2.168312429903313E-011
 -3.660000000000000E-002    2.917732651733190E-011
 -3.650000000000000E-002    3.646747216331288E-011
 -3.640000000000000E-002    4.254409046852366E-011
 -3.630000000000000E-002    4.618464460798514E-011
 -3.620000000000000E-002    4.604189365256670E-011
 -3.610000000000000E-002    4.077270468744795E-011
 -3.600000000000000E-002    2.919963913342709E-011
 -3.590000000000000E-002    1.049140060778909E-011
 -3.580000000000000E-002   -1.565706716327498E-011
 -3.570000000000000E-002   -4.886763948602902E-011
 -3.560000000000000E-002   -8.796868061930063E-011
 -3.550000000000000E-002   -1.309524580314570E-010
 -3.540000000000000E-002   -1.750155994374207E-010
 -3.530000000000000E-002   -2.166891959254362E-010
 -3.520000000000000E-002   -2.520544847566727E-010
 -3.510000000000000E-002   -2.770287861778379E-010
 -3.500000000000000E-002   -2.876960545700703E-010
 -3.490000000000000E-002   -2.806490028944755E-010
 -3.480000000000000E-002   -2.533060514416827E-010
 -3.470000000000000E-002   -2.041682778643103E-010
 -3.460000000000000E-002   -1.329879831454483E-010
 -3.450000000000000E-002   -4.083224832111506E-011
 -3.440000000000000E-002    6.996103654047622E-011
 -3.430000000000000E-002    1.959213888126846E-010
 -3.420000000000000E-002    3.326510627611521E-010
 -3.410000000000000E-002    4.750605521976220E-010
 -3.400000000000000E-002    6.175933420147317E-010
 -3.390000000000000E-002    7.544029923272422E-010
 -3.380000000000000E-002    8.794562269418971E-010
 -3.370000000000000E-002    9.865540890825220E-010
 -3.360000000000000E-002    1.069284352150189E-009
 -3.350000000000000E-002    1.120940368695981E-009
 -3.340000000000000E-002    1.134461111799363E-009
 -3.330000000000000E-002    1.102457047393460E-009
 -3.320000000000000E-002    1.017388718554247E-009
 -3.310000000000000E-002    8.719521972028549E-010
 -3.300000000000000E-002    6.597009980410777E-010
 -3.290000000000000E-002    3.758991276631701E-010
 -3.280000000000000E-002    1.855742826866317E-011
 -3.270000000000000E-002   -4.104379419525067E-010
 -3.260000000000000E-002   -9.042337064656279E-010
 -3.250000000000000E-002   -1.450111153730220E-009
 -3.240000000000000E-002   -2.028943131847072E-009
 -3.230000000000000E-002   -2.615160200319857E-009
 -3.220000000000000E-002   -3.177338340431450E-009
 -3.210000000000000E-002   -3.679468837838888E-009
 -3.200000000000000E-002   -4.082894899111173E-009
 -3.190000000000000E-002   -4.348822452885253E-009
 -3.180000000000000E-002   -4.441229683742651E-009
 -3.170000000000000E-002   -4.329938492962826E-009
 -3.160000000000000E-002   -3.993563035102133E-009
 -3.150000000000000E-002   -3.422035625492984E-009
 -3.140000000000000E-002   -2.618434629087049E-009
 -3.130000000000000E-002   -1.599886657186627E-009
 -3.120000000000000E-002   -3.974024629217620E-010
 -3.110000000000000E-002    9.453888144528233E-010
 -3.100000000000000E-002    2.374529066417914E-009
 -3.090000000000000E-002    3.828856020314306E-009
 -3.080000000000000E-002    5.243681659440686E-009
 -3.070000000000000E-002    6.554683238909619E-009
 -3.060000000000000E-002    7.701639856367878E-009
 -3.050000000000000E-002    8.631676785054999E-009
 -3.040000000000000E-002    9.301732978904061E-009
 -3.030000000000000E-002    9.680072388928182E-009
 -3.020000000000000E-002    9.746783578593472E-009
 -3.010000000000000E-002    9.493327295671664E-009
 -3.000000000000000E-002    8.921328873749145E-009
 -2.990000000000000E-002    8.040892282157188E-009
 -2.980000000000000E-002    6.868770677860896E-009
 -2.970000000000000E-002    5.426737774878146E-009
 -2.960000000000000E-002    3.740457673211710E-009
 -2.950000000000000E-002    1.839061348040156E-009
 -2.940000000000000E-002   -2.444836125300278E-010
 -2.930000000000000E-002   -2.472266983478287E-009
 -2.920000000000000E-002   -4.799799692176657E-009
 -2.910000000000000E-002   -7.174173732038064E-009
 -2.900000000000000E-002   -9.532427396693537E-009
 -2.890000000000000E-002   -1.180057647567752E-008
 -2.880000000000000E-002   -1.389372909462708E-008
 -2.870000000000000E-002   -1.571763261581685E-008
 -2.860000000000000E-002   -1.717184815573033E-008
 -2.850000000000000E-002   -1.815458735360884E-008
 -2.840000000000000E-002   -1.856903186159625E-008
 -2.830000000000000E-002   -1.833075836171323E-008
 -2.820000000000000E-002   -1.737571538585423E-008
 -2.810000000000000E-002   -1.566807162927781E-008
 -2.800000000000000E-002   -1.320717154237559E-008
 -2.790000000000000E-002   -1.003284879578791E-008
 -2.780000000000000E-002   -6.228404406876549E-009
 -2.770000000000000E-002   -1.920724647757534E-009
 -2.760000000000000E-002    2.722800120803530E-009
 -2.750000000000000E-002    7.500627059368772E-009
 -2.740000000000000E-002    1.218651213777351E-008
 -2.730000000000000E-002    1.654157162203990E-008
 -2.720000000000000E-002    2.032828182131812E-008
 -2.710000000000000E-002    2.332550423256138E-008
 -2.700000000000000E-002    2.534349904309202E-008
 -2.690000000000000E-002    2.623784507541219E-008
 -2.680000000000000E-002    2.592118159454704E-008
 -2.670000000000000E-002    2.437183007044227E-008
 -2.660000000000000E-002    2.163850448902944E-008
 -2.650000000000000E-002    1.784058729499560E-008
 -2.640000000000000E-002    1.316374811448868E-008
 -2.630000000000000E-002    7.850996161667495E-009
 -2.620000000000000E-002    2.189628524347832E-009
 -2.610000000000000E-002   -3.505186034762764E-009
 -2.600000000000000E-002   -8.909115884564280E-009
 -2.590000000000000E-002   -1.370842618235475E-008
 -2.580000000000000E-002   -1.761938578094777E-008
 -2.570000000000000E-002   -2.040589066987365E-008
 -2.560000000000000E-002   -2.189397964440664E-008
 -2.550000000000000E-002   -2.198208055195279E-008
 -2.540000000000000E-002   -2.064615434516062E-008
 -2.530000000000000E-002   -1.793931291392652E-008
 -2.520000000000000E-002   -1.398590857749848E-008
 -2.510000000000000E-002   -8.970660955161167E-009
 -2.500000000000000E-002   -3.123809680105250E-009
 -2.490000000000000E-002    3.296238633803707E-009
 -2.480000000000000E-002    1.002095195805884E-008
 -2.470000000000000E-002    1.678848257221383E-008
 -2.460000000000000E-002    2.335713841108684E-008
 -2.450000000000000E-002    2.951378064890099E-008
 -2.440000000000000E-002    3.507556539905820E-008
 -2.430000000000000E-002    3.988419804551180E-008
 -2.420000000000000E-002    4.379243576527855E-008
 -2.410000000000000E-002    4.664330941807067E-008
 -2.400000000000000E-002    4.824350938918865E-008
 -2.390000000000000E-002    4.833289883769968E-008
 -2.380000000000000E-002    4.655295451050817E-008
 -2.370000000000000E-002    4.241713541504664E-008
 -2.360000000000000E-002    3.528642923829951E-008
 -2.350000000000000E-002    2.435315822218580E-008
 -2.340000000000000E-002    8.635645733526982E-009
 -2.330000000000000E-002   -1.301445434118369E-008
 -2.320000000000000E-002   -4.189115627341293E-008
 -2.310000000000000E-002   -7.940014313349979E-008
 -2.300000000000000E-002   -1.270128798509498E-007
 -2.290000000000000E-002   -1.862115949187382E-007
 -2.280000000000000E-002   -2.584294439243719E-007
 -2.270000000000000E-002   -3.449894404670298E-007
 -2.260000000000000E-002   -4.470474963513741E-007
 -2.250000000000000E-002   -5.655447241241665E-007
 -2.240000000000000E-002   -7.011728529143262E-007
 -2.230000000000000E-002   -8.543563545224517E-007
 -2.220000000000000E-002   -1.025254460805150E-006
 -2.210000000000000E-002   -1.213782407149955E-006
 -2.200000000000000E-002   -1.419652754440466E-006
 -2.190000000000000E-002   -1.642432846300799E-006
 -2.180000000000000E-002   -1.881615907697680E-006
 -2.170000000000000E-002   -2.136699094793897E-006
 -2.160000000000000E-002   -2.407263539556395E-006
 -2.150000000000000E-002   -2.693049464494623E-006
 -2.140000000000000E-002   -2.994020876890073E-006
 -2.130000000000000E-002   -3.310413144096187E-006
 -2.120000000000000E-002   -3.642760891299269E-006
 -2.110000000000000E-002   -3.991902694560971E-006
 -2.100000000000000E-002   -4.358961619078466E-006
 -2.090000000000000E-002   -4.745304500691536E-006
 -2.080000000000000E-002   -5.152482527295443E-006
 -2.070000000000000E-002   -5.582157991210770E-006
 -2.060000000000000E-002   -6.036024532911915E-006
 -2.050000000000000E-002   -6.515729308848077E-006
 -2.040000000000000E-002   -7.022799449281708E-006
 -2.030000000000000E-002   -7.558590430365216E-006
 -2.020000000000000E-002   -8.124250765869648E-006
 -2.010000000000000E-002   -8.720715092978927E-006
 -2.000000000000000E-002   -9.348724477580255E-006
 -1.990000000000000E-002   -1.000887609057212E-005
 -1.980000000000000E-002   -1.070169694348494E-005
 -1.970000000000000E-002   -1.142774034724782E-005
 -1.960000000000000E-002   -1.218769221671323E-005
 -1.950000000000000E-002   -1.298248851421392E-005
 -1.940000000000000E-002   -1.381342381628019E-005
 -1.930000000000000E-002   -1.468224927170482E-005
 -1.920000000000000E-002   -1.559124941465348E-005
 -1.910000000000000E-002   -1.654328568607385E-005
 -1.900000000000000E-002   -1.754181782500440E-005
 -1.890000000000000E-002   -1.859087734197583E-005
 -1.880000000000000E-002   -1.969501759737294E-005
 -1.870000000000000E-002   -2.085922470715406E-005
 -1.860000000000000E-002   -2.208880847924478E-005
 -1.850000000000000E-002   -2.338927358613409E-005
 -1.840000000000000E-002   -2.476618738147892E-005
 -1.830000000000000E-002   -2.622504897581382E-005
 -1.820000000000000E-002   -2.777117401603326E-005
 -1.810000000000000E-002   -2.940960143723604E-005
 -1.800000000000000E-002   -3.114503026930351E-005
 -1.790000000000000E-002   -3.298179985678899E-005
 -1.780000000000000E-002   -3.492390152309756E-005
 -1.770000000000000E-002   -3.697503149814084E-005
 -1.760000000000000E-002   -3.913867958557225E-005
 -1.750000000000000E-002   -4.141825212117709E-005
 -1.740000000000000E-002   -4.381720617329677E-005
 -1.730000000000000E-002   -4.633920637695358E-005
 -1.720000000000000E-002   -4.898827766701781E-005
 -1.710000000000000E-002   -5.176894079120117E-005
 -1.700000000000000E-002   -5.468635833253944E-005
 -1.690000000000000E-002   -5.774641235014514E-005
 -1.680000000000000E-002   -6.095578858270572E-005
 -1.670000000000000E-002   -6.432200020570097E-005
 -1.660000000000000E-002   -6.785338513863939E-005
 -1.650000000000000E-002   -7.155906024876229E-005
 -1.640000000000000E-002   -7.544886054530467E-005
 -1.630000000000000E-002   -7.953323190876008E-005
 -1.620000000000000E-002   -8.382312669363878E-005
 -1.610000000000000E-002   -8.832985553334995E-005
 -1.600000000000000E-002   -9.306499782662386E-005
 -1.590000000000000E-002   -9.804027279892183E-005
 -1.580000000000000E-002   -1.032674399111257E-004
 -1.570000000000000E-002   -1.087582421268027E-004
 -1.560000000000000E-002   -1.145243726667658E-004
 -1.550000000000000E-002   -1.205774498124656E-004
 -1.540000000000000E-002   -1.269290737412370E-004
 -1.530000000000000E-002   -1.335908816677766E-004
 -1.520000000000000E-002   -1.405746752303481E-004
 -1.510000000000000E-002   -1.478925173026351E-004
 -1.500000000000000E-002   -1.555569286968071E-004
 -1.490000000000000E-002   -1.635809775020464E-004
 -1.480000000000000E-002   -1.719785393277886E-004
 -1.470000000000000E-002   -1.807643719423323E-004
 -1.460000000000000E-002   -1.899543049703507E-004
 -1.450000000000000E-002   -1.995653001190962E-004
 -1.440000000000000E-002   -2.096155830898607E-004
 -1.430000000000000E-002   -2.201246276626295E-004
 -1.420000000000000E-002   -2.311131574148400E-004
 -1.410000000000000E-002   -2.426030769618497E-004
 -1.400000000000000E-002   -2.546174165432421E-004
 -1.390000000000000E-002   -2.671800975903771E-004
 -1.380000000000000E-002   -2.803158838418863E-004
 -1.370000000000000E-002   -2.940500928644171E-004
 -1.360000000000000E-002   -3.084084785167019E-004
 -1.350000000000000E-002   -3.234170204860790E-004
 -1.340000000000000E-002   -3.391017853042540E-004
 -1.330000000000000E-002   -3.554887922238468E-004
 -1.320000000000000E-002   -3.726039612106417E-004
 -1.310000000000000E-002   -3.904731395878539E-004
 -1.300000000000000E-002   -4.091220971263022E-004
 -1.290000000000000E-002   -4.285766467636245E-004
 -1.280000000000000E-002   -4.488628612259176E-004
 -1.270000000000000E-002   -4.700071771072166E-004
 -1.260000000000000E-002   -4.920367498360669E-004
 -1.250000000000000E-002   -5.149796262295485E-004
 -1.240000000000000E-002   -5.388651214975033E-004
 -1.230000000000000E-002   -5.637238222123593E-004
 -1.220000000000000E-002   -5.895880519239779E-004
 -1.210000000000000E-002   -6.164918084923522E-004
 -1.200000000000000E-002   -6.444708735676886E-004
 -1.190000000000000E-002   -6.735628897404385E-004
 -1.180000000000000E-002   -7.038072141604941E-004
 -1.170000000000000E-002   -7.352447437289176E-004
 -1.160000000000000E-002   -7.679177929060031E-004
 -1.150000000000000E-002   -8.018696116024657E-004
 -1.140000000000000E-002   -8.371444687287845E-004
 -1.130000000000000E-002   -8.737869459352974E-004
 -1.120000000000000E-002   -9.118419170509946E-004
 -1.110000000000000E-002   -9.513541082286380E-004
 -1.100000000000000E-002   -9.923680516785137E-004
 -1.090000000000000E-002   -1.034927854901361E-003
 -1.080000000000000E-002   -1.079077169370779E-003
 -1.070000000000000E-002   -1.124859263594506E-003
 -1.060000000000000E-002   -1.172316866293917E-003
 -1.050000000000000E-002   -1.221492561392998E-003
 -1.040000000000000E-002   -1.272428911214665E-003
 -1.030000000000000E-002   -1.325168746563043E-003
 -1.020000000000000E-002   -1.379755174073125E-003
 -1.010000000000000E-002   -1.436232088626382E-003
 -1.000000000000000E-002   -1.494643896325091E-003
 -9.899999999999999E-003   -1.555036203267742E-003
 -9.800000000000000E-003   -1.617455446370863E-003
 -9.699999999999999E-003   -1.681949016082538E-003
 -9.599999999999999E-003   -1.748564911121573E-003
 -9.500000000000000E-003   -1.817352098102278E-003
 -9.399999999999999E-003   -1.888359766137025E-003
 -9.299999999999999E-003   -1.961637131951985E-003
 -9.200000000000000E-003   -2.037233590030854E-003
 -9.099999999999999E-003   -2.115197578339146E-003
 -8.999999999999999E-003   -2.195577065486808E-003
 -8.900000000000000E-003   -2.278419034376945E-003
 -8.799999999999999E-003   -2.363769010500805E-003
 -8.699999999999999E-003   -2.451671244788633E-003
 -8.600000000000000E-003   -2.542168467591260E-003
 -8.499999999999999E-003   -2.635301419750657E-003
 -8.399999999999999E-003   -2.731109535733231E-003
 -8.300000000000000E-003   -2.829630426775380E-003
 -8.199999999999999E-003   -2.930899920309200E-003
 -8.100000000000000E-003   -3.034951860196501E-003
 -8.000000000000000E-003   -3.141818127785151E-003
 -7.899999999999999E-003   -3.251528910818696E-003
 -7.800000000000000E-003   -3.364112044317098E-003
 -7.699999999999999E-003   -3.479593121686349E-003
 -7.599999999999999E-003   -3.597995089834813E-003
 -7.499999999999999E-003   -3.719338058277712E-003
 -7.399999999999999E-003   -3.843639170744410E-003
 -7.299999999999999E-003   -3.970912200252223E-003
 -7.199999999999999E-003   -4.101166697428263E-003
 -7.100000000000000E-003   -4.234408927730495E-003
 -6.999999999999999E-003   -4.370639924060624E-003
 -6.899999999999999E-003   -4.509857106355148E-003
 -6.800000000000000E-003   -4.652052700971489E-003
 -6.699999999999999E-003   -4.797213845752724E-003
 -6.599999999999999E-003   -4.945322684110361E-003
 -6.499999999999999E-003   -5.096356045454385E-003
 -6.399999999999999E-003   -5.250284535241741E-003
 -6.299999999999999E-003   -5.407073185469730E-003
 -6.199999999999999E-003   -5.566681246304296E-003
 -6.100000000000000E-003   -5.729061364943775E-003
 -5.999999999999999E-003   -5.894158821438586E-003
 -5.899999999999999E-003   -6.061912470168966E-003
 -5.800000000000000E-003   -6.232252829553530E-003
 -5.699999999999999E-003   -6.405102870563401E-003
 -5.599999999999999E-003   -6.580376538775896E-003
 -5.499999999999999E-003   -6.757979111577725E-003
 -5.399999999999999E-003   -6.937806237710071E-003
 -5.299999999999999E-003   -7.119743352473059E-003
 -5.199999999999999E-003   -7.303665696385442E-003
 -5.099999999999999E-003   -7.489437073468814E-003
 -4.999999999999999E-003   -7.676910264506652E-003
 -4.899999999999999E-003   -7.865926354934416E-003
 -4.799999999999999E-003   -8.056314260853183E-003
 -4.699999999999999E-003   -8.247890481179614E-003
 -4.599999999999999E-003   -8.440458416623388E-003
 -4.499999999999999E-003   -8.633807744756430E-003
 -4.399999999999999E-003   -8.827715225168984E-003
 -4.299999999999999E-003   -9.021943415625828E-003
 -4.199999999999999E-003   -9.216241337642579E-003
 -4.099999999999999E-003   -9.410342355310556E-003
 -3.999999999999999E-003   -9.603965087016015E-003
 -3.899999999999999E-003   -9.796812792530085E-003
 -3.799999999999999E-003   -9.988571825089290E-003
 -3.699999999999999E-003   -1.017891355423107E-002
 -3.599999999999999E-003   -1.036749103015189E-002
 -3.499999999999999E-003   -1.055394066365440E-002
 -3.399999999999999E-003   -1.073787992961030E-002
 -3.299999999999999E-003   -1.091890795388735E-002
 -3.199999999999999E-003   -1.109660441034374E-002
 -3.099999999999999E-003   -1.127052919192237E-002
 -2.999999999999999E-003   -1.144022193146130E-002
 -2.899999999999999E-003   -1.160520048639623E-002
 -2.799999999999999E-003   -1.176496126165900E-002
 -2.699999999999999E-003   -1.191897876654188E-002
 -2.599999999999999E-003   -1.206670479592572E-002
 -2.499999999999999E-003   -1.220756652951010E-002
 -2.399999999999999E-003   -1.234097047166278E-002
 -2.299999999999999E-003   -1.246629619556136E-002
 -2.199999999999999E-003   -1.258290140826052E-002
 -2.099999999999999E-003   -1.269011778117519E-002
 -1.999999999999999E-003   -1.278725239723272E-002
 -1.899999999999999E-003   -1.287358943628771E-002
 -1.799999999999999E-003   -1.294838558691551E-002
 -1.699999999999999E-003   -1.301087210028906E-002
 -1.599999999999999E-003   -1.306025668636437E-002
 -1.499999999999999E-003   -1.309571919583161E-002
 -1.399999999999999E-003   -1.311641431063423E-002
 -1.299999999999999E-003   -1.312147009200980E-002
 -1.199999999999999E-003   -1.310998739372901E-002
 -1.099999999999999E-003   -1.308103939414693E-002
 -9.999999999999989E-004   -1.303367383364444E-002
 -8.999999999999990E-004   -1.296690754794850E-002
 -7.999999999999990E-004   -1.287972999870688E-002
 -6.999999999999989E-004   -1.277110391496423E-002
 -5.999999999999990E-004   -1.263996101365767E-002
 -4.999999999999989E-004   -1.248520548289566E-002
 -3.999999999999989E-004   -1.230571248923924E-002
 -2.999999999999989E-004   -1.210032896478210E-002
 -1.999999999999989E-004   -1.186787180794218E-002
 -9.999999999999892E-005   -1.160713127434536E-002
  1.084202172485504E-018   -1.131686674917284E-002
  1.000000000000011E-004   -1.099581164407587E-002
  2.000000000000011E-004   -1.064267046669771E-002
  3.000000000000011E-004   -1.025612198307569E-002
  4.000000000000011E-004   -9.834816389366906E-003
  5.000000000000011E-004   -9.377375817873877E-003
  6.000000000000011E-004   -8.882398846623923E-003
  7.000000000000011E-004   -8.348454762519015E-003
  8.000000000000011E-004   -7.774091577360002E-003
  9.000000000000012E-004   -7.157828023923772E-003
  1.000000000000001E-003   -6.498161360905736E-003
  1.100000000000001E-003   -5.793563339343611E-003
  1.200000000000001E-003   -5.042483465302887E-003
  1.300000000000001E-003   -4.243350743645038E-003
  1.400000000000001E-003   -3.394571573524769E-003
  1.500000000000001E-003   -2.494531941063712E-003
  1.600000000000001E-003   -1.541597904117097E-003
  1.700000000000001E-003   -5.341202074359837E-004
  1.800000000000001E-003    5.295689587593666E-004
  1.900000000000001E-003    1.651154334821854E-003
  2.000000000000001E-003    2.832336723558603E-003
  2.100000000000001E-003    4.074827331990744E-003
  2.200000000000001E-003    5.380350518449061E-003
  2.300000000000001E-003    6.750644610831801E-003
  2.400000000000001E-003    8.187457438397688E-003
  2.500000000000001E-003    9.692540581933886E-003
  2.600000000000001E-003    1.126765843788363E-002
  2.700000000000001E-003    1.291457592469331E-002
  2.800000000000001E-003    1.463506681279458E-002
  2.900000000000001E-003    1.643090257044608E-002
  3.000000000000001E-003    1.830385402450860E-002
  3.100000000000001E-003    2.025569052312010E-002
  3.200000000000001E-003    2.228818053084330E-002
  3.300000000000001E-003    2.440308453501011E-002
  3.400000000000001E-003    2.660214951225964E-002
  3.500000000000001E-003    2.888711836173647E-002
  3.600000000000001E-003    3.125970986736395E-002
  3.700000000000001E-003    3.372164094171982E-002
  3.800000000000001E-003    3.627459775458498E-002
  3.900000000000001E-003    3.892025824921203E-002
  4.000000000000001E-003    4.166026555624800E-002
  4.100000000000001E-003    4.449624382330977E-002
  4.200000000000001E-003    4.742978690117086E-002
  4.300000000000001E-003    5.046245845081307E-002
  4.400000000000001E-003    5.359578855595098E-002
  4.500000000000001E-003    5.683126811771591E-002
  4.600000000000002E-003    6.017035615025007E-002
  4.700000000000001E-003    6.361446256022898E-002
  4.800000000000001E-003    6.716495222615992E-002
  4.900000000000002E-003    7.082314612855217E-002
  5.000000000000001E-003    7.459031234952415E-002
  5.100000000000001E-003    7.846766315100868E-002
  5.200000000000001E-003    8.245635325515034E-002
  5.300000000000002E-003    8.655747639552949E-002
  5.400000000000001E-003    9.077206715866377E-002
  5.500000000000001E-003    9.510108775258036E-002
  5.600000000000002E-003    9.954542768638587E-002
  5.700000000000001E-003    0.104105905994514     
  5.800000000000001E-003    0.108783266245646     
  5.900000000000002E-003    0.113578178303122     
  6.000000000000001E-003    0.118491211739687     
  6.100000000000001E-003    0.123522873774607     
  6.200000000000002E-003    0.128673558600059     
  6.300000000000002E-003    0.133943566475440     
  6.400000000000001E-003    0.139333126076336     
  6.500000000000001E-003    0.144842343665927     
  6.600000000000002E-003    0.150471244209660     
  6.700000000000001E-003    0.156219720351877     
  6.800000000000001E-003    0.162087567743221     
  6.900000000000002E-003    0.168074471190458     
  7.000000000000001E-003    0.174180008558913     
  7.100000000000001E-003    0.180403627632483     
  7.200000000000002E-003    0.186744646373052     
  7.300000000000002E-003    0.193202264350592     
  7.400000000000001E-003    0.199775549115289     
  7.500000000000001E-003    0.206463440387478     
  7.600000000000002E-003    0.213264762281737     
  7.700000000000001E-003    0.220178171439857     
  7.800000000000001E-003    0.227202185548618     
  7.900000000000001E-003    0.234335212926556     
  8.000000000000002E-003    0.241575472245253     
  8.100000000000001E-003    0.248921076581257     
  8.200000000000001E-003    0.256369971925509     
  8.300000000000002E-003    0.263919959599787     
  8.400000000000001E-003    0.271568685875670     
  8.500000000000002E-003    0.279313643184473     
  8.600000000000002E-003    0.287152147725709     
  8.700000000000001E-003    0.295081393711649     
  8.800000000000002E-003    0.303098401951749     
  8.900000000000002E-003    0.311200019440923     
  9.000000000000001E-003    0.319382924712411     
  9.100000000000002E-003    0.327643657852955     
  9.200000000000002E-003    0.335978583634118     
  9.300000000000001E-003    0.344383915542729     
  9.400000000000002E-003    0.352855660859898     
  9.500000000000001E-003    0.361389720943677     
  9.600000000000001E-003    0.369981773133750     
  9.700000000000002E-003    0.378627322911230     
  9.800000000000001E-003    0.387321773512191     
  9.900000000000001E-003    0.396060306338099     
  1.000000000000000E-002    0.404837957087530     
  1.010000000000000E-002    0.413649576461513     
  1.020000000000000E-002    0.422489891459873     
  1.030000000000000E-002    0.431353416963237     
  1.040000000000000E-002    0.440234569959852     
  1.050000000000000E-002    0.449127518122376     
  1.060000000000000E-002    0.458026341253965     
  1.070000000000000E-002    0.466924975411372     
  1.080000000000000E-002    0.475817148025260     
  1.090000000000000E-002    0.484696451975436     
  1.100000000000000E-002    0.493556344765435     
  1.110000000000000E-002    0.502390138899947     
  1.120000000000000E-002    0.511191002625311     
  1.130000000000000E-002    0.519951956632735     
  1.140000000000000E-002    0.528665848538382     
  1.150000000000000E-002    0.537325507342908     
  1.160000000000000E-002    0.545923483989637     
  1.170000000000000E-002    0.554452312479603     
  1.180000000000000E-002    0.562904345873151     
  1.190000000000000E-002    0.571271866101531     
  1.200000000000000E-002    0.579547056392900     
  1.210000000000000E-002    0.587721943867040     
  1.220000000000000E-002    0.595788480563768     
  1.230000000000000E-002    0.603738556055609     
  1.240000000000000E-002    0.611563925365324     
  1.250000000000000E-002    0.619256272901723     
  1.260000000000000E-002    0.626807179807097     
  1.270000000000000E-002    0.634208277636901     
  1.280000000000000E-002    0.641451027841795     
  1.290000000000000E-002    0.648526860629454     
  1.300000000000000E-002    0.655427141783831     
  1.310000000000000E-002    0.662143257736407     
  1.320000000000000E-002    0.668666513891823     
  1.330000000000000E-002    0.674988198261295     
  1.340000000000000E-002    0.681099516214931     
  1.350000000000000E-002    0.686991786574053     
  1.360000000000000E-002    0.692656263199430     
  1.370000000000000E-002    0.698084230842146     
  1.380000000000000E-002    0.703266910009926     
  1.390000000000000E-002    0.708195634354109     
  1.400000000000000E-002    0.712861753138204     
  1.410000000000000E-002    0.717256632017526     
  1.420000000000000E-002    0.721371721879928     
  1.430000000000000E-002    0.725198489177556     
  1.440000000000000E-002    0.728728512885422     
  1.450000000000000E-002    0.731953447524669     
  1.460000000000000E-002    0.734865049261601     
  1.470000000000000E-002    0.737455085256500     
  1.480000000000000E-002    0.739715534833880     
  1.490000000000000E-002    0.741638377044765     
  1.500000000000000E-002    0.743215866621251     
  1.510000000000000E-002    0.744440288932411     
  1.520000000000000E-002    0.745304086571192     
  1.530000000000000E-002    0.745799856268532     
  1.540000000000000E-002    0.745920440268007     
  1.550000000000000E-002    0.745658713878459     
  1.560000000000000E-002    0.745007855711793     
  1.570000000000000E-002    0.743961165588745     
  1.580000000000000E-002    0.742512208750356     
  1.590000000000000E-002    0.740654673337177     
  1.600000000000000E-002    0.738382558289032     
  1.610000000000000E-002    0.735690070255295     
  1.620000000000000E-002    0.732571610587413     
  1.630000000000000E-002    0.729021892672247     
  1.640000000000000E-002    0.725035826094391     
  1.650000000000000E-002    0.720608632294648     
  1.660000000000000E-002    0.715735748894107     
  1.670000000000000E-002    0.710412955427840     
  1.680000000000000E-002    0.704636283309632     
  1.690000000000000E-002    0.698402090783468     
  1.700000000000000E-002    0.691707000144554     
  1.710000000000000E-002    0.684547999155538     
  1.720000000000000E-002    0.676922338605671     
  1.730000000000000E-002    0.668827653781925     
  1.740000000000000E-002    0.660261896407380     
  1.750000000000000E-002    0.651223308588622     
  1.760000000000000E-002    0.641710553187816     
  1.770000000000000E-002    0.631722655727761     
  1.780000000000000E-002    0.621258919074567     
  1.790000000000000E-002    0.610319060328580     
  1.800000000000000E-002    0.598903149377474     
  1.810000000000000E-002    0.587011639960677     
  1.820000000000000E-002    0.574645385907621     
  1.830000000000000E-002    0.561805563929592     
  1.840000000000000E-002    0.548493800373950     
  1.850000000000000E-002    0.534712082068206     
  1.860000000000000E-002    0.520462765564447     
  1.870000000000000E-002    0.505748646726630     