 -4.000000000000000E-002    0.000000000000000E+000
 -3.990000000000000E-002    0.000000000000000E+000
 -3.980000000000000E-002    0.000000000000000E+000
 -3.970000000000000E-002    0.000000000000000E+000
 -3.960000000000000E-002    0.000000000000000E+000
 -3.950000000000000E-002    0.000000000000000E+000
 -3.940000000000000E-002    0.000000000000000E+000
 -3.930000000000000E-002    0.000000000000000E+000
 -3.920000000000000E-002    0.000000000000000E+000
 -3.910000000000000E-002    0.000000000000000E+000
 -3.900000000000000E-002    0.000000000000000E+000
 -3.890000000000000E-002    0.000000000000000E+000
 -3.880000000000000E-002    0.000000000000000E+000
 -3.870000000000000E-002    0.000000000000000E+000
 -3.860000000000000E-002    0.000000000000000E+000
 -3.850000000000000E-002    0.000000000000000E+000
 -3.840000000000000E-002    0.000000000000000E+000
 -3.830000000000000E-002    0.000000000000000E+000
 -3.820000000000000E-002    0.000000000000000E+000
 -3.810000000000000E-002    0.000000000000000E+000
 -3.800000000000000E-002    0.000000000000000E+000
 -3.790000000000000E-002    0.000000000000000E+000
 -3.780000000000000E-002    0.000000000000000E+000
 -3.770000000000000E-002    0.000000000000000E+000
 -3.760000000000000E-002    0.000000000000000E+000
 -3.750000000000000E-002    0.000000000000000E+000
 -3.740000000000000E-002    0.000000000000000E+000
 -3.730000000000000E-002    0.000000000000000E+000
 -3.720000000000000E-002    0.000000000000000E+000
 -3.710000000000000E-002    0.000000000000000E+000
 -3.700000000000000E-002    0.000000000000000E+000
 -3.690000000000000E-002    0.000000000000000E+000
 -3.680000000000000E-002    0.000000000000000E+000
 -3.670000000000000E-002    0.000000000000000E+000
 -3.660000000000000E-002    0.000000000000000E+000
 -3.650000000000000E-002    0.000000000000000E+000
 -3.640000000000000E-002    0.000000000000000E+000
 -3.630000000000000E-002    0.000000000000000E+000
 -3.620000000000000E-002    0.000000000000000E+000
 -3.610000000000000E-002    0.000000000000000E+000
 -3.600000000000000E-002    0.000000000000000E+000
 -3.590000000000000E-002    0.000000000000000E+000
 -3.580000000000000E-002    0.000000000000000E+000
 -3.570000000000000E-002    0.000000000000000E+000
 -3.560000000000000E-002   -1.029807220919303E-047
 -3.550000000000000E-002   -3.455521320953369E-047
 -3.540000000000000E-002   -6.911042641906739E-047
 -3.530000000000000E-002   -1.626119321628182E-046
 -3.520000000000000E-002   -3.495711349219500E-046
 -3.510000000000000E-002   -7.415040821397002E-046
 -3.500000000000000E-002   -1.546644173154418E-045
 -3.490000000000000E-002   -2.889781111401480E-045
 -3.480000000000000E-002   -5.269781573222894E-045
 -3.470000000000000E-002   -8.952438089851738E-045
 -3.460000000000000E-002   -1.371068147194143E-044
 -3.450000000000000E-002   -1.860995708609818E-044
 -3.440000000000000E-002   -1.994834212668413E-044
 -3.430000000000000E-002   -7.866846350377987E-045
 -3.420000000000000E-002    3.798108073803707E-044
 -3.410000000000000E-002    1.583400988993055E-043
 -3.400000000000000E-002    4.221325351484357E-043
 -3.390000000000000E-002    9.483876168827419E-043
 -3.380000000000000E-002    1.916510670522577E-042
 -3.370000000000000E-002    3.575174387378060E-042
 -3.360000000000000E-002    6.223267895990635E-042
 -3.350000000000000E-002    1.013778801110097E-041
 -3.340000000000000E-002    1.539434246216025E-041
 -3.330000000000000E-002    2.151063553353559E-041
 -3.320000000000000E-002    2.681647407433957E-041
 -3.310000000000000E-002    2.744687133714466E-041
 -3.300000000000000E-002    1.587915886990119E-041
 -3.290000000000000E-002   -2.098643954086500E-041
 -3.280000000000000E-002   -1.039878614006391E-040
 -3.270000000000000E-002   -2.635386402836877E-040
 -3.260000000000000E-002   -5.399727894454910E-040
 -3.250000000000000E-002   -9.803477143956282E-040
 -3.240000000000000E-002   -1.628557580747629E-039
 -3.230000000000000E-002   -2.504320467565587E-039
 -3.220000000000000E-002   -3.565540747551677E-039
 -3.210000000000000E-002   -4.648202422693119E-039
 -3.200000000000000E-002   -5.379358889757937E-039
 -3.190000000000000E-002   -5.063221273887465E-039
 -3.180000000000000E-002   -2.549622400003784E-039
 -3.170000000000000E-002    3.889928488408973E-039
 -3.160000000000000E-002    1.662915568302550E-038
 -3.150000000000000E-002    3.861450259300583E-038
 -3.140000000000000E-002    7.303093190045961E-038
 -3.130000000000000E-002    1.225429631381004E-037
 -3.120000000000000E-002    1.879175111912087E-037
 -3.110000000000000E-002    2.658348117034405E-037
 -3.100000000000000E-002    3.457510062038226E-037
 -3.090000000000000E-002    4.058274496465784E-037
 -3.080000000000000E-002    4.082268620795273E-037
 -3.070000000000000E-002    2.945343948208128E-037
 -3.060000000000000E-002   -1.728931100049480E-038
 -3.050000000000000E-002   -6.321893541634045E-037
 -3.040000000000000E-002   -1.670372740843378E-036
 -3.030000000000000E-002   -3.248722614201053E-036
 -3.020000000000000E-002   -5.446753122742211E-036
 -3.010000000000000E-002   -8.252857656701020E-036
 -3.000000000000000E-002   -1.148820336274608E-035
 -2.990000000000000E-002   -1.470917202010392E-035
 -2.980000000000000E-002   -1.709536013041744E-035
 -2.970000000000000E-002   -1.733927357343025E-035
 -2.960000000000000E-002   -1.356596523245720E-035
 -2.950000000000000E-002   -3.325246010380244E-036
 -2.940000000000000E-002    1.628601682503524E-035
 -2.930000000000000E-002    4.830182811999940E-035
 -2.920000000000000E-002    9.529079330083909E-035
 -2.910000000000000E-002    1.584201587889136E-034
 -2.900000000000000E-002    2.361447672376307E-034
 -2.890000000000000E-002    3.225438232392502E-034
 -2.880000000000000E-002    4.054213481721851E-034
 -2.870000000000000E-002    4.644158416186447E-034
 -2.860000000000000E-002    4.695259267970752E-034
 -2.850000000000000E-002    3.806396516448156E-034
 -2.840000000000000E-002    1.488263191426942E-034
 -2.830000000000000E-002   -2.797248128374111E-034
 -2.820000000000000E-002   -9.562137902131006E-034
 -2.810000000000000E-002   -1.917424909208553E-033
 -2.800000000000000E-002   -3.169225362868891E-033
 -2.790000000000000E-002   -4.665658551069588E-033
 -2.780000000000000E-002   -6.284928133497478E-033
 -2.770000000000000E-002   -7.804896516931375E-033
 -2.760000000000000E-002   -8.882311120657346E-033
 -2.750000000000000E-002   -9.041650495219227E-033
 -2.740000000000000E-002   -7.681042092512414E-033
 -2.730000000000000E-002   -4.103746043857175E-033
 -2.720000000000000E-002    2.416126836119380E-033
 -2.710000000000000E-002    1.252622818059997E-032
 -2.700000000000000E-002    2.664253502085803E-032
 -2.690000000000000E-002    4.475076033893758E-032
 -2.680000000000000E-002    6.617118505998989E-032
 -2.670000000000000E-002    8.930551274244934E-032
 -2.660000000000000E-002    1.113962526642119E-031
 -2.650000000000000E-002    1.283419852609615E-031
 -2.640000000000000E-002    1.346243673955608E-031
 -2.630000000000000E-002    1.234128297890455E-031
 -2.620000000000000E-002    8.691832411037425E-032
 -2.610000000000000E-002    1.706562635687149E-032
 -2.600000000000000E-002   -9.345863481730023E-032
 -2.590000000000000E-002   -2.497503017156995E-031
 -2.580000000000000E-002   -4.528334249729838E-031
 -2.570000000000000E-002   -6.974748094152453E-031
 -2.560000000000000E-002   -9.698112190722386E-031
 -2.550000000000000E-002   -1.245026008725648E-030
 -2.540000000000000E-002   -1.485418473091070E-030
 -2.530000000000000E-002   -1.639321232615835E-030
 -2.520000000000000E-002   -1.641425885475762E-030
 -2.510000000000000E-002   -1.415159956624334E-030
 -2.500000000000000E-002   -8.777916512915945E-031
 -2.490000000000000E-002    5.110703879832153E-032
 -2.480000000000000E-002    1.437367137338527E-030
 -2.470000000000000E-002    3.315942942108212E-030
 -2.460000000000000E-002    5.670992167136438E-030
 -2.450000000000000E-002    8.413376856161933E-030
 -2.440000000000000E-002    1.135757194914456E-029
 -2.430000000000000E-002    1.420106937034714E-029
 -2.420000000000000E-002    1.651053948227795E-029
 -2.410000000000000E-002    1.772011245110059E-029
 -2.400000000000000E-002    1.714793530249633E-029
 -2.390000000000000E-002    1.403734158954803E-029
 -2.380000000000000E-002    7.628209401252463E-030
 -2.370000000000000E-002   -2.737961218972733E-030
 -2.360000000000000E-002   -1.747936069235324E-029
 -2.350000000000000E-002   -3.660700101431171E-029
 -2.340000000000000E-002   -5.954202605902497E-029
 -2.330000000000000E-002   -8.493765318381499E-029
 -2.320000000000000E-002   -1.105344973387498E-028
 -2.310000000000000E-002   -1.330853406646973E-028
 -2.300000000000000E-002   -1.483899245736541E-028
 -2.290000000000000E-002   -1.514800934143124E-028
 -2.280000000000000E-002   -1.369886509407441E-028
 -2.270000000000000E-002   -9.972012904223833E-029
 -2.260000000000000E-002   -3.541731226388759E-029
 -2.250000000000000E-002    5.831523515707660E-029
 -2.240000000000000E-002    1.810083115230160E-028
 -2.230000000000000E-002    3.283640212739527E-028
 -2.220000000000000E-002    4.914846724523018E-028
 -2.210000000000000E-002    6.564719994360970E-028
 -2.200000000000000E-002    8.045768604330795E-028
 -2.190000000000000E-002    9.130524042554760E-028
 -2.180000000000000E-002    9.568033938974574E-028
 -2.170000000000000E-002    9.108283525231748E-028
 -2.160000000000000E-002    7.533247244792527E-028
 -2.150000000000000E-002    4.691852109902819E-028
 -2.140000000000000E-002    5.347321400863681E-029
 -2.130000000000000E-002   -4.856431474060552E-028
 -2.120000000000000E-002   -1.125068276258741E-027
 -2.110000000000000E-002   -1.826596008983901E-027
 -2.100000000000000E-002   -2.538743898815562E-027
 -2.090000000000000E-002   -3.200713237245076E-027
 -2.080000000000000E-002   -3.748212741299267E-027
 -2.070000000000000E-002   -4.120454628512592E-027
 -2.060000000000000E-002   -4.267205197180699E-027
 -2.050000000000000E-002   -4.154448184179236E-027
 -2.040000000000000E-002   -3.767096102778405E-027
 -2.030000000000000E-002   -3.107366181296309E-027
 -2.020000000000000E-002   -2.187988298491018E-027
 -2.010000000000000E-002   -1.020373534621147E-027
 -2.000000000000000E-002    4.008319419271424E-028
 -1.990000000000000E-002    2.113879082503091E-027
 -1.980000000000000E-002    4.202335995759677E-027
 -1.970000000000000E-002    6.798311806390903E-027
 -1.960000000000000E-002    1.007063148359399E-026
 -1.950000000000000E-002    1.419287255979169E-026
 -1.940000000000000E-002    1.928834551344649E-026
 -1.930000000000000E-002    2.535276461985438E-026
 -1.920000000000000E-002    3.216047054527961E-026
 -1.910000000000000E-002    3.916605378779867E-026
 -1.900000000000000E-002    4.541944536161761E-026
 -1.890000000000000E-002    4.951768490927728E-026
 -1.880000000000000E-002    4.961949002269211E-026
 -1.870000000000000E-002    4.354793648535370E-026
 -1.860000000000000E-002    2.900072393416206E-026
 -1.850000000000000E-002    3.876215381852594E-027
 -1.840000000000000E-002   -3.329380207907340E-026
 -1.830000000000000E-002   -8.283515090756316E-026
 -1.820000000000000E-002   -1.434009649824684E-025
 -1.810000000000000E-002   -2.114981070743903E-025
 -1.800000000000000E-002   -2.811666135697565E-025
 -1.790000000000000E-002   -3.439169641751470E-025
 -1.780000000000000E-002   -3.890241338271042E-025
 -1.770000000000000E-002   -4.042539695151825E-025
 -1.760000000000000E-002   -3.770543857060643E-025
 -1.750000000000000E-002   -2.961827543016066E-025
 -1.740000000000000E-002   -1.536659581054723E-025
 -1.730000000000000E-002    5.309187348397478E-026
 -1.720000000000000E-002    3.193146414135322E-025
 -1.710000000000000E-002    6.312914652347017E-025
 -1.700000000000000E-002    9.655903144659333E-025
 -1.690000000000000E-002    1.289373445604902E-024
 -1.680000000000000E-002    1.562068900774759E-024
 -1.670000000000000E-002    1.738521975928927E-024
 -1.660000000000000E-002    1.773573942054439E-024
 -1.650000000000000E-002    1.627795653439485E-024
 -1.640000000000000E-002    1.273877347566524E-024
 -1.630000000000000E-002    7.029598817924956E-025
 -1.620000000000000E-002   -6.996644360007898E-026
 -1.610000000000000E-002   -1.002545204535124E-024
 -1.600000000000000E-002   -2.024324620427603E-024
 -1.590000000000000E-002   -3.039542863069089E-024
 -1.580000000000000E-002   -3.933835409987244E-024
 -1.570000000000000E-002   -4.584822887305399E-024
 -1.560000000000000E-002   -4.876009655931854E-024
 -1.550000000000000E-002   -4.712842217548118E-024
 -1.540000000000000E-002   -4.039256197214321E-024
 -1.530000000000000E-002   -2.852609900469502E-024
 -1.520000000000000E-002   -1.214680078643325E-024
 -1.510000000000000E-002    7.435779483066330E-025
 -1.500000000000000E-002    2.825470455128554E-024
 -1.490000000000000E-002    4.781519856482743E-024
 -1.480000000000000E-002    6.332314076174145E-024
 -1.470000000000000E-002    7.200455208102779E-024
 -1.460000000000000E-002    7.149495737324022E-024
 -1.450000000000000E-002    6.026430030932660E-024
 -1.440000000000000E-002    3.803134573883729E-024
 -1.430000000000000E-002    6.112346834199027E-025
 -1.420000000000000E-002   -3.235582020792874E-024
 -1.410000000000000E-002   -7.237678078840447E-024
 -1.400000000000000E-002   -1.072910695232838E-023
 -1.390000000000000E-002   -1.292440293944132E-023
 -1.380000000000000E-002   -1.299388533382294E-023
 -1.370000000000000E-002   -1.016591152684106E-023
 -1.360000000000000E-002   -3.851032869440233E-024
 -1.350000000000000E-002    6.220953697395454E-024
 -1.340000000000000E-002    1.986399634561770E-023
 -1.330000000000000E-002    3.631556978449461E-023
 -1.320000000000000E-002    5.415284854586866E-023
 -1.310000000000000E-002    7.126671742414413E-023
 -1.300000000000000E-002    8.491437181495556E-023
 -1.290000000000000E-002    9.186878722550325E-023
 -1.280000000000000E-002    8.867673472219150E-023
 -1.270000000000000E-002    7.202780941410995E-023
 -1.260000000000000E-002    3.922360469384466E-023
 -1.250000000000000E-002   -1.127993633516232E-023
 -1.240000000000000E-002   -7.930192718384379E-023
 -1.230000000000000E-002   -1.624011368802947E-022
 -1.220000000000000E-002   -2.554547146250760E-022
 -1.210000000000000E-002   -3.504410121246859E-022
 -1.200000000000000E-002   -4.365182759182416E-022
 -1.190000000000000E-002   -5.004813691747341E-022
 -1.180000000000000E-002   -5.276549176636692E-022
 -1.170000000000000E-002   -5.032418366559271E-022
 -1.160000000000000E-002   -4.140922958253178E-022
 -1.150000000000000E-002   -2.507922659186814E-022
 -1.140000000000000E-002   -9.899189117457766E-024
 -1.130000000000000E-002    3.039175606184237E-022
 -1.120000000000000E-002    6.761306523771096E-022
 -1.110000000000000E-002    1.081335110680481E-021
 -1.100000000000000E-002    1.483284497464196E-021
 -1.090000000000000E-002    1.836264903007048E-021
 -1.080000000000000E-002    2.087990211735630E-021
 -1.070000000000000E-002    2.184053919307694E-021
 -1.060000000000000E-002    2.073782155113062E-021
 -1.050000000000000E-002    1.717112753906571E-021
 -1.040000000000000E-002    1.091900469361819E-021
 -1.030000000000000E-002    2.008513117299778E-022
 -1.020000000000000E-002   -9.228575878728569E-022
 -1.010000000000000E-002   -2.212267004162026E-021
 -1.000000000000000E-002   -3.566571053875453E-021
 -9.899999999999999E-003   -4.855032554831551E-021
 -9.800000000000000E-003   -5.925290352526076E-021
 -9.699999999999999E-003   -6.616006909174151E-021
 -9.599999999999999E-003   -6.773264125833021E-021
 -9.500000000000000E-003   -6.269535733320631E-021
 -9.399999999999999E-003   -5.023515809348438E-021
 -9.299999999999999E-003   -3.018639787545045E-021
 -9.200000000000000E-003   -3.178648929601739E-022
 -9.099999999999999E-003    2.927722238835089E-021
 -8.999999999999999E-003    6.478645543939035E-021
 -8.900000000000000E-003    1.001670643518871E-020
 -8.799999999999999E-003    1.316527989184291E-020
 -8.699999999999999E-003    1.551986362899937E-020
 -8.600000000000000E-003    1.668724852351916E-020
 -8.499999999999999E-003    1.633044527166505E-020
 -8.399999999999999E-003    1.421538866784456E-020
 -8.300000000000000E-003    1.025462321002113E-020
 -8.199999999999999E-003    4.542726651691978E-021
 -8.100000000000000E-003   -2.621678400021326E-021
 -8.000000000000000E-003   -1.073183026032661E-020
 -7.899999999999999E-003   -1.908996053860536E-020
 -7.800000000000000E-003   -2.684728973073277E-020
 -7.699999999999999E-003   -3.306643226800554E-020
 -7.599999999999999E-003   -3.680346176020511E-020
 -7.499999999999999E-003   -3.720462019206727E-020
 -7.399999999999999E-003   -3.361045847083387E-020
 -7.299999999999999E-003   -2.565851661646566E-020
 -7.199999999999999E-003   -1.337444576886779E-020
 -7.100000000000000E-003    2.759030628825972E-021
 -6.999999999999999E-003    2.176552535600902E-020
 -6.899999999999999E-003    4.217976575531055E-020
 -6.800000000000000E-003    6.210069041494897E-020
 -6.699999999999999E-003    7.929668884174210E-020
 -6.599999999999999E-003    9.136321269688595E-020
 -6.499999999999999E-003    9.592821729481880E-020
 -6.399999999999999E-003    9.089609997347868E-020
 -6.299999999999999E-003    7.471522233276653E-020
 -6.199999999999999E-003    4.664902342198096E-020
 -6.100000000000000E-003    7.025621720550425E-021
 -5.999999999999999E-003   -4.256267085054596E-020
 -5.899999999999999E-003   -9.914096435295994E-020
 -5.800000000000000E-003   -1.583447790155033E-019
 -5.699999999999999E-003   -2.145516052000268E-019
 -5.599999999999999E-003   -2.611706326384820E-019
 -5.499999999999999E-003   -2.910990462764966E-019
 -5.399999999999999E-003   -2.973378683329620E-019
 -5.299999999999999E-003   -2.737414933979126E-019
 -5.199999999999999E-003   -2.158539830195154E-019
 -5.099999999999999E-003   -1.217638779018954E-019
 -4.999999999999999E-003    7.110386384422520E-021
 -4.899999999999999E-003    1.654057920476433E-019
 -4.799999999999999E-003    3.434789978493189E-019
 -4.699999999999999E-003    5.274515868319117E-019
 -4.599999999999999E-003    6.997205372911385E-019
 -4.499999999999999E-003    8.399844665205211E-019
 -4.399999999999999E-003    9.267900134617307E-019
 -4.299999999999999E-003    9.395440577574644E-019
 -4.199999999999999E-003    8.608720735685423E-019
 -4.099999999999999E-003    6.791374391375177E-019
 -3.999999999999999E-003    3.908780274494327E-019
 -3.899999999999999E-003    2.874378825092792E-021
 -3.799999999999999E-003   -4.664544447175779E-019
 -3.699999999999999E-003   -9.866160190521070E-019
 -3.599999999999999E-003   -1.515810519718104E-018
 -3.499999999999999E-003   -2.003048055462417E-018
 -3.399999999999999E-003   -2.391647010534700E-018
 -3.299999999999999E-003   -2.623994904878162E-018
 -3.199999999999999E-003   -2.647294035092868E-018
 -3.099999999999999E-003   -2.419854000578638E-018
 -2.999999999999999E-003   -1.917359956459622E-018
 -2.899999999999999E-003   -1.138451902512049E-018
 -2.799999999999999E-003   -1.089109856159200E-019
 -2.699999999999999E-003    1.116212819839136E-018
 -2.599999999999999E-003    2.453086592630271E-018
 -2.499999999999999E-003    3.792559779680418E-018
 -2.399999999999999E-003    5.006720908615380E-018
 -2.299999999999999E-003    5.958354852462962E-018
 -2.199999999999999E-003    6.512791871953810E-018
 -2.099999999999999E-003    6.551322763537976E-018
 -1.999999999999999E-003    5.985096235856075E-018
 -1.899999999999999E-003    4.768218063694278E-018
 -1.799999999999999E-003    2.908687877064790E-018
 -1.699999999999999E-003    4.758521659893963E-019
 -1.599999999999999E-003   -2.396799368392269E-018
 -1.499999999999999E-003   -5.514351047038894E-018
 -1.399999999999999E-003   -8.629172441784115E-018
 -1.299999999999999E-003   -1.145560068893968E-017
 -1.199999999999999E-003   -1.369007153961777E-017
 -1.099999999999999E-003   -1.503562721663767E-017
 -9.999999999999989E-004   -1.522924727974693E-017
 -8.999999999999990E-004   -1.407005475717148E-017
 -7.999999999999990E-004   -1.144614127137801E-017
 -6.999999999999989E-004   -7.357621889298143E-018
 -5.999999999999990E-004   -1.933538435396368E-018
 -4.999999999999989E-004    4.559580448000765E-018
 -3.999999999999989E-004    1.171934080056374E-017
 -2.999999999999989E-004    1.902059627019077E-017
 -1.999999999999989E-004    2.584069713089098E-017
 -9.999999999999892E-005    3.149670142263007E-017
  1.084202172485504E-018    3.529347196011282E-017
  1.000000000000011E-004    3.658059467791188E-017
  2.000000000000011E-004    3.481506912886554E-017
  3.000000000000011E-004    2.962568192044842E-017
  4.000000000000011E-004    2.087421209744811E-017
  5.000000000000011E-004    8.707820118763227E-018
  6.000000000000011E-004   -6.403259354413584E-018
  7.000000000000011E-004   -2.364869855604447E-017
  8.000000000000011E-004   -4.188705604382096E-017
  9.000000000000012E-004   -5.968503313907372E-017
  1.000000000000001E-003   -7.538943153990575E-017
  1.100000000000001E-003   -8.723192519373311E-017
  1.200000000000001E-003   -9.346372211587243E-017
  1.300000000000001E-003   -9.251389769150594E-017
  1.400000000000001E-003   -8.316173117691411E-017
  1.500000000000001E-003   -6.471000012105260E-017
  1.600000000000001E-003   -3.714359765357191E-017
  1.700000000000001E-003   -1.255850905825591E-018
  1.800000000000001E-003    4.127519260870226E-017
  1.900000000000001E-003    8.787713216319661E-017
  2.000000000000001E-003    1.351536091289473E-016
  2.100000000000001E-003    1.790426785512695E-016
  2.200000000000001E-003    2.150646509663650E-016
  2.300000000000001E-003    2.386519665916153E-016
  2.400000000000001E-003    2.455448924440804E-016
  2.500000000000001E-003    2.322275157051060E-016
  2.600000000000001E-003    1.963702952204582E-016
  2.700000000000001E-003    1.372392475327731E-016
  2.800000000000001E-003    5.602843256939151E-017
  2.900000000000001E-003   -4.392758649531284E-017
  3.000000000000001E-003   -1.570996447197904E-016
  3.100000000000001E-003   -2.758983261798240E-016
  3.200000000000001E-003   -3.910132961182966E-016
  3.300000000000001E-003   -4.919582846801997E-016
  3.400000000000001E-003   -5.678034400155952E-016
  3.500000000000001E-003   -6.080568770767999E-016
  3.600000000000001E-003   -6.036391088739152E-016
  3.700000000000001E-003   -5.478778851865555E-016
  3.800000000000001E-003   -4.374388965742376E-016
  3.900000000000001E-003   -2.731035376834788E-016
  4.000000000000001E-003   -6.030552961610595E-017
  4.100000000000001E-003    1.906519040932470E-016
  4.200000000000001E-003    4.647582459157069E-016
  4.300000000000001E-003    7.428742897619603E-016
  4.400000000000001E-003    1.002733069594286E-015
  4.500000000000001E-003    1.220334626728783E-015
  4.600000000000002E-003    1.371670879656825E-015
  4.700000000000001E-003    1.434682987623278E-015
  4.800000000000001E-003    1.391322687665176E-015
  4.900000000000002E-003    1.229565399925552E-015
  5.000000000000001E-003    9.452090505711929E-016
  5.100000000000001E-003    5.432898620161548E-016
  5.200000000000001E-003    3.895326114757989E-017
  5.300000000000002E-003   -5.423562906082998E-016
  5.400000000000001E-003   -1.165490877358008E-015
  5.500000000000001E-003   -1.787035366882325E-015
  5.600000000000002E-003   -2.357583343598252E-015
  5.700000000000001E-003   -2.824788830071275E-015
  5.800000000000001E-003   -3.137062934104684E-015
  5.900000000000002E-003   -3.247716746259593E-015
  6.000000000000001E-003   -3.119293924379190E-015
  6.100000000000001E-003   -2.727784858625694E-015
  6.200000000000002E-003   -2.066381972149447E-015
  6.300000000000002E-003   -1.148421306677786E-015
  6.400000000000001E-003   -9.172229575610039E-018
  6.500000000000001E-003    1.293830210475082E-015
  6.600000000000002E-003    2.682141155529270E-015
  6.700000000000001E-003    4.059583391112911E-015
  6.800000000000001E-003    5.317260437960574E-015
  6.900000000000002E-003    6.340272792442308E-015
  7.000000000000001E-003    7.015854778104653E-015
  7.100000000000001E-003    7.242494026062895E-015
  7.200000000000002E-003    6.939449020517702E-015
  7.300000000000002E-003    6.055972982270120E-015
  7.400000000000001E-003    4.579467120327644E-015
  7.500000000000001E-003    2.541767128290677E-015
  7.600000000000002E-003    2.279554656733316E-017
  7.700000000000001E-003   -2.849070527460536E-015
  7.800000000000001E-003   -5.900400015865256E-015
  7.900000000000001E-003   -8.920127010829527E-015
  8.000000000000002E-003   -1.167093460787747E-014
  8.100000000000001E-003   -1.390423330108466E-014
  8.200000000000001E-003   -1.537802144516554E-014
  8.300000000000002E-003   -1.587658419586192E-014
  8.400000000000001E-003   -1.523071367874475E-014
  8.500000000000002E-003   -1.333691253279463E-014
  8.600000000000002E-003   -1.017394560444825E-014
  8.700000000000001E-003   -5.815093424144500E-015
  8.800000000000002E-003   -4.346168554293885E-016
  8.900000000000002E-003    5.692784332783630E-015
  9.000000000000001E-003    1.220032631880823E-014
  9.100000000000002E-003    1.864561390347499E-014
  9.200000000000002E-003    2.453491940721667E-014
  9.300000000000001E-003    2.935431652279260E-014
  9.400000000000002E-003    3.260609875992183E-014
  9.500000000000001E-003    3.384830863483757E-014
  9.600000000000001E-003    3.273474121803101E-014
  9.700000000000002E-003    2.905244922600832E-014
  9.800000000000001E-003    2.275365084538657E-014
  9.900000000000001E-003    1.397900364341332E-014
  1.000000000000000E-002    3.069560274788585E-015
  1.010000000000000E-002   -9.434762925546011E-015
  1.020000000000000E-002   -2.281160012795161E-014
  1.030000000000000E-002   -3.618784718607902E-014
  1.040000000000000E-002   -4.858610358142347E-014
  1.050000000000000E-002   -5.898400407864689E-014
  1.060000000000000E-002   -6.638361630196606E-014
  1.070000000000000E-002   -6.988694138809013E-014
  1.080000000000000E-002   -6.877271817367435E-014
  1.090000000000000E-002   -6.256915951343317E-014
  1.100000000000000E-002   -5.111687490375020E-014
  1.110000000000000E-002   -3.461639146082688E-014
  1.120000000000000E-002   -1.365507941788605E-014
  1.130000000000000E-002    1.079066374139354E-014
  1.140000000000000E-002    3.738100678110671E-014
  1.150000000000000E-002    6.446724642722578E-014
  1.160000000000000E-002    9.017474413642365E-014
  1.170000000000000E-002    1.125114445477044E-013
  1.180000000000000E-002    1.294970715381937E-013
  1.190000000000000E-002    1.393060586624894E-013
  1.200000000000000E-002    1.404155087013853E-013
  1.210000000000000E-002    1.317481018746265E-013
  1.220000000000000E-002    1.127991531449527E-013
  1.230000000000000E-002    8.373685099720865E-014
  1.240000000000000E-002    4.546553382417786E-014
  1.250000000000000E-002   -3.566907125252921E-016
  1.260000000000000E-002   -5.135223175366118E-014
  1.270000000000000E-002   -1.045136462942810E-013
  1.280000000000000E-002   -1.563479956275740E-013
  1.290000000000000E-002   -2.030716491436306E-013
  1.300000000000000E-002   -2.408469330895663E-013
  1.310000000000000E-002   -2.660480831793982E-013
  1.320000000000000E-002   -2.755406157643681E-013
  1.330000000000000E-002   -2.669553234095932E-013
  1.340000000000000E-002   -2.389368154051635E-013
  1.350000000000000E-002   -1.913461151836149E-013
  1.360000000000000E-002   -1.253979319836996E-013
  1.370000000000000E-002   -4.371643564039689E-014
  1.380000000000000E-002    4.970301261663783E-014
  1.390000000000000E-002    1.496327095464037E-013
  1.400000000000000E-002    2.498523054620291E-013
  1.410000000000000E-002    3.434821786793412E-013
  1.420000000000000E-002    4.233962831905434E-013
  1.430000000000000E-002    4.826928632559101E-013
  1.440000000000000E-002    5.151956463572205E-013
  1.450000000000000E-002    5.159532280640856E-013
  1.460000000000000E-002    4.817015090325600E-013
  1.470000000000000E-002    4.112535991644265E-013
  1.480000000000000E-002    3.057831878417439E-013
  1.490000000000000E-002    1.689718413272284E-013
  1.500000000000000E-002    6.997658075205009E-015
  1.510000000000000E-002   -1.716484555992549E-013
  1.520000000000000E-002   -3.565223521995966E-013
  1.530000000000000E-002   -5.357528411020130E-013
  1.540000000000000E-002   -6.967138692103901E-013
  1.550000000000000E-002   -8.268097642232676E-013
  1.560000000000000E-002   -9.143305317460116E-013
  1.570000000000000E-002   -9.493251702013167E-013
  1.580000000000000E-002   -9.244353473581273E-013
  1.590000000000000E-002   -8.356297269993541E-013
  1.600000000000000E-002   -6.827805853533361E-013
  1.610000000000000E-002   -4.700296734560662E-013
  1.620000000000000E-002   -2.059000324656275E-013
  1.630000000000000E-002    9.687584536016274E-014
  1.640000000000000E-002    4.218251677776979E-013
  1.650000000000000E-002    7.494962470661182E-013
  1.660000000000000E-002    1.058485998141472E-012
  1.670000000000000E-002    1.326689334033600E-012
  1.680000000000000E-002    1.532704830239465E-012
  1.690000000000000E-002    1.657317254635891E-012
  1.700000000000000E-002    1.684964658258952E-012
  1.710000000000000E-002    1.605089787914017E-012
  1.720000000000000E-002    1.413276598425584E-012
  1.730000000000000E-002    1.112077714412024E-012
  1.740000000000000E-002    7.114498915793005E-013
  1.750000000000000E-002    2.287373540573616E-013
  1.760000000000000E-002   -3.118362435104237E-013
  1.770000000000000E-002   -8.801731816018363E-013
  1.780000000000000E-002   -1.441779793401326E-012
  1.790000000000000E-002   -1.959657906137686E-012
  1.800000000000000E-002   -2.396517800394140E-012
  1.810000000000000E-002   -2.717193368279171E-012
  1.820000000000000E-002   -2.891114149882215E-012
  1.830000000000000E-002   -2.894676541946823E-012
  1.840000000000000E-002   -2.713349137259800E-012
  1.850000000000000E-002   -2.343351787426991E-012
  1.860000000000000E-002   -1.792765315275211E-012
  1.870000000000000E-002   -1.081954691115831E-012