 -4.000000000000000E-002    0.000000000000000E+000
 -3.990000000000000E-002    0.000000000000000E+000
 -3.980000000000000E-002    0.000000000000000E+000
 -3.970000000000000E-002    0.000000000000000E+000
 -3.960000000000000E-002    0.000000000000000E+000
 -3.950000000000000E-002    0.000000000000000E+000
 -3.940000000000000E-002    0.000000000000000E+000
 -3.930000000000000E-002    0.000000000000000E+000
 -3.920000000000000E-002    0.000000000000000E+000
 -3.910000000000000E-002    0.000000000000000E+000
 -3.900000000000000E-002    0.000000000000000E+000
 -3.890000000000000E-002    0.000000000000000E+000
 -3.880000000000000E-002    0.000000000000000E+000
 -3.870000000000000E-002    0.000000000000000E+000
 -3.860000000000000E-002    0.000000000000000E+000
 -3.850000000000000E-002    0.000000000000000E+000
 -3.840000000000000E-002    0.000000000000000E+000
 -3.830000000000000E-002    0.000000000000000E+000
 -3.820000000000000E-002    0.000000000000000E+000
 -3.810000000000000E-002    0.000000000000000E+000
 -3.800000000000000E-002    0.000000000000000E+000
 -3.790000000000000E-002    0.000000000000000E+000
 -3.780000000000000E-002    0.000000000000000E+000
 -3.770000000000000E-002    0.000000000000000E+000
 -3.760000000000000E-002    0.000000000000000E+000
 -3.750000000000000E-002    0.000000000000000E+000
 -3.740000000000000E-002    0.000000000000000E+000
 -3.730000000000000E-002    0.000000000000000E+000
 -3.720000000000000E-002    0.000000000000000E+000
 -3.710000000000000E-002    0.000000000000000E+000
 -3.700000000000000E-002    0.000000000000000E+000
 -3.690000000000000E-002    0.000000000000000E+000
 -3.680000000000000E-002    0.000000000000000E+000
 -3.670000000000000E-002    0.000000000000000E+000
 -3.660000000000000E-002    0.000000000000000E+000
 -3.650000000000000E-002    0.000000000000000E+000
 -3.640000000000000E-002    0.000000000000000E+000
 -3.630000000000000E-002    0.000000000000000E+000
 -3.620000000000000E-002    0.000000000000000E+000
 -3.610000000000000E-002    0.000000000000000E+000
 -3.600000000000000E-002    0.000000000000000E+000
 -3.590000000000000E-002    0.000000000000000E+000
 -3.580000000000000E-002    0.000000000000000E+000
 -3.570000000000000E-002    0.000000000000000E+000
 -3.560000000000000E-002    0.000000000000000E+000
 -3.550000000000000E-002    0.000000000000000E+000
 -3.540000000000000E-002    0.000000000000000E+000
 -3.530000000000000E-002    0.000000000000000E+000
 -3.520000000000000E-002    0.000000000000000E+000
 -3.510000000000000E-002    0.000000000000000E+000
 -3.500000000000000E-002    0.000000000000000E+000
 -3.490000000000000E-002    0.000000000000000E+000
 -3.480000000000000E-002    0.000000000000000E+000
 -3.470000000000000E-002    0.000000000000000E+000
 -3.460000000000000E-002    0.000000000000000E+000
 -3.450000000000000E-002    0.000000000000000E+000
 -3.440000000000000E-002    0.000000000000000E+000
 -3.430000000000000E-002    0.000000000000000E+000
 -3.420000000000000E-002    0.000000000000000E+000
 -3.410000000000000E-002    0.000000000000000E+000
 -3.400000000000000E-002    0.000000000000000E+000
 -3.390000000000000E-002    0.000000000000000E+000
 -3.380000000000000E-002    0.000000000000000E+000
 -3.370000000000000E-002    0.000000000000000E+000
 -3.360000000000000E-002    0.000000000000000E+000
 -3.350000000000000E-002    0.000000000000000E+000
 -3.340000000000000E-002    0.000000000000000E+000
 -3.330000000000000E-002    0.000000000000000E+000
 -3.320000000000000E-002    0.000000000000000E+000
 -3.310000000000000E-002    0.000000000000000E+000
 -3.300000000000000E-002    0.000000000000000E+000
 -3.290000000000000E-002    0.000000000000000E+000
 -3.280000000000000E-002    0.000000000000000E+000
 -3.270000000000000E-002    0.000000000000000E+000
 -3.260000000000000E-002    0.000000000000000E+000
 -3.250000000000000E-002    0.000000000000000E+000
 -3.240000000000000E-002    0.000000000000000E+000
 -3.230000000000000E-002    0.000000000000000E+000
 -3.220000000000000E-002    0.000000000000000E+000
 -3.210000000000000E-002    0.000000000000000E+000
 -3.200000000000000E-002    0.000000000000000E+000
 -3.190000000000000E-002    0.000000000000000E+000
 -3.180000000000000E-002    0.000000000000000E+000
 -3.170000000000000E-002    0.000000000000000E+000
 -3.160000000000000E-002    0.000000000000000E+000
 -3.150000000000000E-002    0.000000000000000E+000
 -3.140000000000000E-002    0.000000000000000E+000
 -3.130000000000000E-002    0.000000000000000E+000
 -3.120000000000000E-002    0.000000000000000E+000
 -3.110000000000000E-002    0.000000000000000E+000
 -3.100000000000000E-002    0.000000000000000E+000
 -3.090000000000000E-002    0.000000000000000E+000
 -3.080000000000000E-002    0.000000000000000E+000
 -3.070000000000000E-002    0.000000000000000E+000
 -3.060000000000000E-002    0.000000000000000E+000
 -3.050000000000000E-002    0.000000000000000E+000
 -3.040000000000000E-002    0.000000000000000E+000
 -3.030000000000000E-002    0.000000000000000E+000
 -3.020000000000000E-002    0.000000000000000E+000
 -3.010000000000000E-002    0.000000000000000E+000
 -3.000000000000000E-002    0.000000000000000E+000
 -2.990000000000000E-002    0.000000000000000E+000
 -2.980000000000000E-002    0.000000000000000E+000
 -2.970000000000000E-002    0.000000000000000E+000
 -2.960000000000000E-002    0.000000000000000E+000
 -2.950000000000000E-002    0.000000000000000E+000
 -2.940000000000000E-002    0.000000000000000E+000
 -2.930000000000000E-002    0.000000000000000E+000
 -2.920000000000000E-002    0.000000000000000E+000
 -2.910000000000000E-002    0.000000000000000E+000
 -2.900000000000000E-002    6.063643830318533E-048
 -2.890000000000000E-002    1.476450900630885E-048
 -2.880000000000000E-002    5.504901963445096E-048
 -2.870000000000000E-002    1.295535322932082E-047
 -2.860000000000000E-002    1.056696781561731E-047
 -2.850000000000000E-002    6.348938855083746E-048
 -2.840000000000000E-002   -1.771128773974889E-047
 -2.830000000000000E-002   -8.771790425265501E-047
 -2.820000000000000E-002   -1.805767106349124E-046
 -2.810000000000000E-002   -2.387949633888052E-046
 -2.800000000000000E-002   -2.231844168637757E-046
 -2.790000000000000E-002   -2.281292264035385E-046
 -2.780000000000000E-002   -2.134057363063106E-046
 -2.770000000000000E-002   -2.818011209317285E-046
 -2.760000000000000E-002   -3.871361927477560E-046
 -2.750000000000000E-002   -2.728606089667149E-046
 -2.740000000000000E-002   -9.656767964053218E-047
 -2.730000000000000E-002   -1.857851632949848E-046
 -2.720000000000000E-002    1.396990769383380E-045
 -2.710000000000000E-002    4.415551618820858E-045
 -2.700000000000000E-002    1.019518278036904E-044
 -2.690000000000000E-002    1.855638460924975E-044
 -2.680000000000000E-002    3.015297195429219E-044
 -2.670000000000000E-002    4.355097732828442E-044
 -2.660000000000000E-002    5.802671093812785E-044
 -2.650000000000000E-002    6.847576691045104E-044
 -2.640000000000000E-002    6.865295425410522E-044
 -2.630000000000000E-002    4.931920203370686E-044
 -2.620000000000000E-002   -1.102742010123140E-045
 -2.610000000000000E-002   -9.438389559862014E-044
 -2.600000000000000E-002   -2.405761117791920E-043
 -2.590000000000000E-002   -4.438221410670467E-043
 -2.580000000000000E-002   -6.963772617898050E-043
 -2.570000000000000E-002   -9.696584616781999E-043
 -2.560000000000000E-002   -1.207360388155016E-042
 -2.550000000000000E-002   -1.319609592334290E-042
 -2.540000000000000E-002   -1.183157069931611E-042
 -2.530000000000000E-002   -6.479355986373150E-043
 -2.520000000000000E-002    4.420567812448356E-043
 -2.510000000000000E-002    2.210751717469121E-042
 -2.500000000000000E-002    4.694867249068149E-042
 -2.490000000000000E-002    7.774171605129444E-042
 -2.480000000000000E-002    1.109463726786043E-041
 -2.470000000000000E-002    1.400651995023608E-041
 -2.460000000000000E-002    1.553226469682167E-041
 -2.450000000000000E-002    1.441927422832570E-041
 -2.440000000000000E-002    9.292117246286531E-042
 -2.430000000000000E-002   -1.051868615797792E-042
 -2.420000000000000E-002   -1.719876705024152E-041
 -2.410000000000000E-002   -3.855206065140900E-041
 -2.400000000000000E-002   -6.273152203128136E-041
 -2.390000000000000E-002   -8.508884774696125E-041
 -2.380000000000000E-002   -9.857137729533477E-041
 -2.370000000000000E-002   -9.422455438961561E-041
 -2.360000000000000E-002   -6.262180032403536E-041
 -2.350000000000000E-002    3.530506984623715E-042
 -2.340000000000000E-002    1.056016663095616E-040
 -2.330000000000000E-002    2.343445299123282E-040
 -2.320000000000000E-002    3.651150033414351E-040
 -2.310000000000000E-002    4.543978661753390E-040
 -2.300000000000000E-002    4.396719629975088E-040
 -2.290000000000000E-002    2.451003912860487E-040
 -2.280000000000000E-002   -2.044261177528996E-040
 -2.270000000000000E-002   -9.589924342664569E-040
 -2.260000000000000E-002   -2.008895089259264E-039
 -2.250000000000000E-002   -3.242061929133827E-039
 -2.240000000000000E-002   -4.400446562460046E-039
 -2.230000000000000E-002   -5.047226479915583E-039
 -2.220000000000000E-002   -4.561829797116926E-039
 -2.210000000000000E-002   -2.183793682786430E-039
 -2.200000000000000E-002    2.872672638150879E-039
 -2.190000000000000E-002    1.121603744866835E-038
 -2.180000000000000E-002    2.298149813676769E-038
 -2.170000000000000E-002    3.745804915339527E-038
 -2.160000000000000E-002    5.268609613438129E-038
 -2.150000000000000E-002    6.511178342135978E-038
 -2.140000000000000E-002    6.942524273688902E-038
 -2.130000000000000E-002    5.874369275871554E-038
 -2.120000000000000E-002    2.531425578268225E-038
 -2.110000000000000E-002   -3.811083788779420E-038
 -2.100000000000000E-002   -1.361479780100363E-037
 -2.090000000000000E-002   -2.679645021932354E-037
 -2.080000000000000E-002   -4.240361671446371E-037
 -2.070000000000000E-002   -5.830094508429855E-037
 -2.060000000000000E-002   -7.094873089319099E-037
 -2.050000000000000E-002   -7.538150936486862E-037
 -2.040000000000000E-002   -6.550902434409917E-037
 -2.030000000000000E-002   -3.485572808591551E-037
 -2.020000000000000E-002    2.218231250274547E-037
 -2.010000000000000E-002    1.085609232699139E-036
 -2.000000000000000E-002    2.224092053012243E-036
 -1.990000000000000E-002    3.547238545819213E-036
 -1.980000000000000E-002    4.873904696649269E-036
 -1.970000000000000E-002    5.921565123677259E-036
 -1.960000000000000E-002    6.312979720561803E-036
 -1.950000000000000E-002    5.607320100226950E-036
 -1.940000000000000E-002    3.361718633934643E-036
 -1.930000000000000E-002   -7.744886171207686E-037
 -1.920000000000000E-002   -6.936682822465684E-036
 -1.910000000000000E-002   -1.490522180267266E-035
 -1.900000000000000E-002   -2.397103271754597E-035
 -1.890000000000000E-002   -3.283833590406417E-035
 -1.880000000000000E-002   -3.960390827333761E-035
 -1.870000000000000E-002   -4.185499391360910E-035
 -1.860000000000000E-002   -3.692265911990424E-035
 -1.850000000000000E-002   -2.231170407823303E-035
 -1.840000000000000E-002    3.699722335434755E-036
 -1.830000000000000E-002    4.133705688000333E-035
 -1.820000000000000E-002    8.857706212888586E-035
 -1.810000000000000E-002    1.405105140999645E-034
 -1.800000000000000E-002    1.890060152462444E-034
 -1.790000000000000E-002    2.228827231957796E-034
 -1.780000000000000E-002    2.287867599684676E-034
 -1.770000000000000E-002    1.929070660878612E-034
 -1.760000000000000E-002    1.035515980579633E-034
 -1.750000000000000E-002   -4.556339390759999E-035
 -1.740000000000000E-002   -2.516695976029932E-034
 -1.730000000000000E-002   -4.995340910592140E-034
 -1.720000000000000E-002   -7.590675508289073E-034
 -1.710000000000000E-002   -9.848684802662073E-034
 -1.700000000000000E-002   -1.118612269328688E-033
 -1.690000000000000E-002   -1.094996645115201E-033
 -1.680000000000000E-002   -8.515368119198408E-034
 -1.670000000000000E-002   -3.418548820400722E-034
 -1.660000000000000E-002    4.487284933299539E-034
 -1.650000000000000E-002    1.487415815995241E-033
 -1.640000000000000E-002    2.680955097341259E-033
 -1.630000000000000E-002    3.869060101069300E-033
 -1.620000000000000E-002    4.827958796528380E-033
 -1.610000000000000E-002    5.287265789459279E-033
 -1.600000000000000E-002    4.962004478714251E-033
 -1.590000000000000E-002    3.599394451425849E-033
 -1.580000000000000E-002    1.037089502560845E-033
 -1.570000000000000E-002   -2.733781915088538E-033
 -1.560000000000000E-002   -7.510641388156238E-033
 -1.550000000000000E-002   -1.283885945182631E-032
 -1.540000000000000E-002   -1.800179468544791E-032
 -1.530000000000000E-002   -2.205349964919560E-032
 -1.520000000000000E-002   -2.390226240313002E-032
 -1.510000000000000E-002   -2.244655462683826E-032
 -1.500000000000000E-002   -1.675608212439785E-032
 -1.490000000000000E-002   -6.280424672052447E-033
 -1.480000000000000E-002    8.942155121752022E-033
 -1.470000000000000E-002    2.811088246565718E-032
 -1.460000000000000E-002    4.956216130063387E-032
 -1.450000000000000E-002    7.077862269848326E-032
 -1.440000000000000E-002    8.853350515775232E-032
 -1.430000000000000E-002    9.917941217244315E-032
 -1.420000000000000E-002    9.906812005118240E-032
 -1.410000000000000E-002    8.506338054058537E-032
 -1.400000000000000E-002    5.508612437298386E-032
 -1.390000000000000E-002    8.616020603622549E-033
 -1.380000000000000E-002   -5.293005507515406E-032
 -1.370000000000000E-002   -1.260104795067583E-031
 -1.360000000000000E-002   -2.050027571178270E-031
 -1.350000000000000E-002   -2.824802112839492E-031
 -1.340000000000000E-002   -3.496784743739640E-031
 -1.330000000000000E-002   -3.970708747231668E-031
 -1.320000000000000E-002   -4.149526549881968E-031
 -1.310000000000000E-002   -3.939446315249858E-031
 -1.300000000000000E-002   -3.253759121161330E-031
 -1.290000000000000E-002   -2.015896993565476E-031
 -1.280000000000000E-002   -1.632398287116567E-032
 -1.270000000000000E-002    2.345750805324652E-031
 -1.260000000000000E-002    5.517834300690570E-031
 -1.250000000000000E-002    9.301650336226134E-031
 -1.240000000000000E-002    1.355305507825743E-030
 -1.230000000000000E-002    1.799035329175763E-030
 -1.220000000000000E-002    2.214501908994745E-030
 -1.210000000000000E-002    2.531895328939201E-030
 -1.200000000000000E-002    2.656493362505722E-030
 -1.190000000000000E-002    2.471129703070888E-030
 -1.180000000000000E-002    1.845333113172197E-030
 -1.170000000000000E-002    6.530435547934679E-031
 -1.160000000000000E-002   -1.200163211510016E-030
 -1.150000000000000E-002   -3.741116504095199E-030
 -1.140000000000000E-002   -6.887493133454411E-030
 -1.130000000000000E-002   -1.040662519546097E-029
 -1.120000000000000E-002   -1.388349176622365E-029
 -1.110000000000000E-002   -1.670899620231391E-029
 -1.100000000000000E-002   -1.810060758960522E-029
 -1.090000000000000E-002   -1.716634052496217E-029
 -1.080000000000000E-002   -1.301919942398122E-029
 -1.070000000000000E-002   -4.942275221495105E-030
 -1.060000000000000E-002    7.405211111552934E-030
 -1.050000000000000E-002    2.376269027034312E-029
 -1.040000000000000E-002    4.305833933798205E-029
 -1.030000000000000E-002    6.326009528226200E-029
 -1.020000000000000E-002    8.133994675280398E-029
 -1.010000000000000E-002    9.340329662710381E-029
 -1.000000000000000E-002    9.502466120349962E-029
 -9.899999999999999E-003    8.180877594122695E-029
 -9.800000000000000E-003    5.016227378856773E-029
 -9.699999999999999E-003   -1.782396493595718E-030
 -9.599999999999999E-003   -7.319782378411924E-029
 -9.500000000000000E-003   -1.597006133799190E-028
 -9.399999999999999E-003   -2.527872344333461E-028
 -9.299999999999999E-003   -3.397691397214015E-028
 -9.200000000000000E-003   -4.043924613271657E-028
 -9.099999999999999E-003   -4.282721445428306E-028
 -8.999999999999999E-003   -3.931740625752984E-028
 -8.900000000000000E-003   -2.840454239320093E-028
 -8.799999999999999E-003   -9.253472946707148E-029
 -8.699999999999999E-003    1.794228508561865E-028
 -8.600000000000000E-003    5.165233050288063E-028
 -8.499999999999999E-003    8.881778621863207E-028
 -8.399999999999999E-003    1.248437847737126E-027
 -8.300000000000000E-003    1.538338729521067E-027
 -8.199999999999999E-003    1.691021544635834E-027
 -8.100000000000000E-003    1.639649161734384E-027
 -8.000000000000000E-003    1.327690624530607E-027
 -7.899999999999999E-003    7.206519626166151E-028
 -7.800000000000000E-003   -1.821559067655358E-028
 -7.699999999999999E-003   -1.337618619295373E-027
 -7.599999999999999E-003   -2.652609500992802E-027
 -7.499999999999999E-003   -3.983548890812191E-027
 -7.399999999999999E-003   -5.143349270323171E-027
 -7.299999999999999E-003   -5.916660881377553E-027
 -7.199999999999999E-003   -6.083317950380148E-027
 -7.100000000000000E-003   -5.448636021386450E-027
 -6.999999999999999E-003   -3.877865873339141E-027
 -6.899999999999999E-003   -1.330858320247071E-027
 -6.800000000000000E-003    2.107973255332581E-027
 -6.699999999999999E-003    6.209756090666848E-027
 -6.599999999999999E-003    1.059647717749430E-026
 -6.499999999999999E-003    1.475564821462318E-026
 -6.399999999999999E-003    1.807666126719204E-026
 -6.299999999999999E-003    1.990866222239048E-026
 -6.199999999999999E-003    1.963682243196007E-026
 -6.100000000000000E-003    1.677077714272571E-026
 -5.999999999999999E-003    1.103617657125907E-026
 -5.899999999999999E-003    2.458156738453891E-027
 -5.800000000000000E-003   -8.575461721873630E-027
 -5.699999999999999E-003   -2.128309390550642E-026
 -5.599999999999999E-003   -3.450029586006931E-026
 -5.499999999999999E-003   -4.673910027274624E-026
 -5.399999999999999E-003   -5.629745839837163E-026
 -5.299999999999999E-003   -6.141492822243259E-026
 -5.199999999999999E-003   -6.046485658392632E-026
 -5.099999999999999E-003   -5.216789500953787E-026
 -4.999999999999999E-003   -3.580718160147789E-026
 -4.899999999999999E-003   -1.142266056542010E-026
 -4.799999999999999E-003    2.003898485957733E-026
 -4.699999999999999E-003    5.664123307169001E-026
 -4.599999999999999E-003    9.546074627385986E-026
 -4.499999999999999E-003    1.326908913025813E-025
 -4.399999999999999E-003    1.638536274655672E-025
 -4.299999999999999E-003    1.841200958435226E-025
 -4.199999999999999E-003    1.887315941751730E-025
 -4.099999999999999E-003    1.735034670377159E-025
 -3.999999999999999E-003    1.353844853866097E-025
 -3.899999999999999E-003    7.303385280142173E-026
 -3.799999999999999E-003   -1.263271552016084E-026
 -3.699999999999999E-003   -1.179868386507216E-025
 -3.599999999999999E-003   -2.363891809674487E-025
 -3.499999999999999E-003   -3.581227053239874E-025
 -3.399999999999999E-003   -4.706313065614413E-025
 -3.299999999999999E-003   -5.591289352324517E-025
 -3.199999999999999E-003   -6.076250725515016E-025
 -3.099999999999999E-003   -6.003781674613650E-025
 -2.999999999999999E-003   -5.237407828680783E-025
 -2.899999999999999E-003   -3.682987849793126E-025
 -2.799999999999999E-003   -1.311352261863795E-025
 -2.699999999999999E-003    1.820224102941448E-025
 -2.599999999999999E-003    5.550775565819325E-025
 -2.499999999999999E-003    9.606104477323605E-025
 -2.399999999999999E-003    1.360048798248329E-024
 -2.299999999999999E-003    1.705274837635744E-024
 -2.199999999999999E-003    1.941879019974800E-024
 -2.099999999999999E-003    2.014108552730297E-024
 -1.999999999999999E-003    1.871340670419993E-024
 -1.899999999999999E-003    1.475653915015756E-024
 -1.799999999999999E-003    8.098020240268713E-025
 -1.699999999999999E-003   -1.153489540479317E-025
 -1.599999999999999E-003   -1.255036346744307E-024
 -1.499999999999999E-003   -2.527648454964056E-024
 -1.399999999999999E-003   -3.815700244650649E-024
 -1.299999999999999E-003   -4.971573907026088E-024
 -1.199999999999999E-003   -5.828422859272627E-024
 -1.099999999999999E-003   -6.216040950426831E-024
 -9.999999999999989E-004   -5.980795870210168E-024
 -8.999999999999990E-004   -5.007981719103308E-024
 -7.999999999999990E-004   -3.244277071169156E-024
 -6.999999999999989E-004   -7.174806131105616E-025
 -5.999999999999990E-004    2.449521993691759E-024
 -4.999999999999989E-004    6.033479985186244E-024
 -3.999999999999989E-004    9.716561577104512E-024
 -2.999999999999989E-004    1.310460878807100E-023
 -1.999999999999989E-004    1.575796216101525E-023
 -9.999999999999892E-005    1.723339196339743E-023
  1.084202172485504E-018    1.713404447507859E-023
  1.000000000000011E-004    1.516282468016609E-023
  2.000000000000011E-004    1.117348200235632E-023
  3.000000000000011E-004    5.213084686376552E-024
  4.000000000000011E-004   -2.450330473688479E-024
  5.000000000000011E-004   -1.132024631305319E-023
  6.000000000000011E-004   -2.068796443553857E-023
  7.000000000000011E-004   -2.967410907384334E-023
  8.000000000000011E-004   -3.729403525662676E-023
  9.000000000000012E-004   -4.254305632540837E-023
  1.000000000000001E-003   -4.449481270537643E-023
  1.100000000000001E-003   -4.240411655578907E-023
  1.200000000000001E-003   -3.580439448913814E-023
  1.300000000000001E-003   -2.458973441434068E-023
  1.400000000000001E-003   -9.072398818797262E-024
  1.500000000000001E-003    9.991454323033198E-024
  1.600000000000001E-003    3.141246118933565E-023
  1.700000000000001E-003    5.361677834262566E-023
  1.800000000000001E-003    7.473134183870592E-023
  1.900000000000001E-003    9.270138849778643E-023
  2.000000000000001E-003    1.054337798405493E-022
  2.100000000000001E-003    1.109581016733540E-022
  2.200000000000001E-003    1.075967459631812E-022
  2.300000000000001E-003    9.413494358257379E-023
  2.400000000000001E-003    6.998150812072581E-023
  2.500000000000001E-003    3.531112080771043E-023
  2.600000000000001E-003   -8.821731920946376E-024
  2.700000000000001E-003   -6.040787801034187E-023
  2.800000000000001E-003   -1.164597541483180E-022
  2.900000000000001E-003   -1.730523025411348E-022
  3.000000000000001E-003   -2.254423688191255E-022
  3.100000000000001E-003   -2.682796526669571E-022
  3.200000000000001E-003   -2.959185754679044E-022
  3.300000000000001E-003   -3.028338717754331E-022
  3.400000000000001E-003   -2.841321970630196E-022
  3.500000000000001E-003   -2.361384343604398E-022
  3.600000000000001E-003   -1.570189249865062E-022
  3.700000000000001E-003   -4.738707536166454E-023
  3.800000000000001E-003    8.917864986164582E-023
  3.900000000000001E-003    2.457850623391069E-022
  4.000000000000001E-003    4.121265939281442E-022
  4.100000000000001E-003    5.747162627574644E-022
  4.200000000000001E-003    7.175024246685227E-022
  4.300000000000001E-003    8.228968962366724E-022
  4.400000000000001E-003    8.731973467321366E-022
  4.500000000000001E-003    8.523355321223516E-022
  4.600000000000002E-003    7.478306949679970E-022
  4.700000000000001E-003    5.527762657357748E-022
  4.800000000000001E-003    2.676511932026038E-022
  4.900000000000002E-003   -9.827523591851610E-023
  5.000000000000001E-003   -5.261718270529380E-022
  5.100000000000001E-003   -9.877040185553669E-022
  5.200000000000001E-003   -1.446060782262392E-021
  5.300000000000002E-003   -1.858005320113267E-021
  5.400000000000001E-003   -2.176903542107327E-021
  5.500000000000001E-003   -2.356574845420076E-021
  5.600000000000002E-003   -2.355703607382590E-021
  5.700000000000001E-003   -2.142460474653914E-021
  5.800000000000001E-003   -1.698918772302473E-021
  5.900000000000002E-003   -1.024827881933383E-021
  6.000000000000001E-003   -1.403209431880391E-022
  6.100000000000001E-003    9.128072457871338E-022
  6.200000000000002E-003    2.071518371925999E-021
  6.300000000000002E-003    3.253787575967590E-021
  6.400000000000001E-003    4.362699496857974E-021
  6.500000000000001E-003    5.292241030889832E-021
  6.600000000000002E-003    5.934516180388555E-021
  6.700000000000001E-003    6.187996022961149E-021
  6.800000000000001E-003    5.966333525454513E-021
  6.900000000000002E-003    5.207219140632286E-021
  7.000000000000001E-003    3.880719158565745E-021
  7.100000000000001E-003    1.996534207699848E-021
  7.200000000000002E-003   -3.903870008844612E-022
  7.300000000000002E-003   -3.176438327777754E-021
  7.400000000000001E-003   -6.208694875250579E-021
  7.500000000000001E-003   -9.287523634852973E-021
  7.600000000000002E-003   -1.217294367845207E-020
  7.700000000000001E-003   -1.459511681430289E-020
  7.800000000000001E-003   -1.626920590449558E-020
  7.900000000000001E-003   -1.691456851485373E-020
  8.000000000000002E-003   -1.627791142199194E-020
  8.100000000000001E-003   -1.415956928431970E-020
  8.200000000000001E-003   -1.044149884495299E-020
  8.300000000000002E-003   -5.114993827624385E-021
  8.400000000000001E-003    1.694478012091468E-021
  8.500000000000002E-003    9.708391341368178E-021
  8.600000000000002E-003    1.848558931397285E-020
  8.700000000000001E-003    2.742534783142804E-020
  8.800000000000002E-003    3.578598284802082E-020
  8.900000000000002E-003    4.272099916550524E-020
  9.000000000000001E-003    4.733344995262163E-020
  9.100000000000002E-003    4.874739031113431E-020
  9.200000000000002E-003    4.619318694845875E-020
  9.300000000000001E-003    3.910126694730160E-020
  9.400000000000002E-003    2.719674853892952E-020
  9.500000000000001E-003    1.058566496814767E-020
  9.600000000000001E-003   -1.017760033604891E-020
  9.700000000000002E-003   -3.405222605009468E-020
  9.800000000000001E-003   -5.951183078810408E-020
  9.900000000000001E-003   -8.459182284279016E-020
  1.000000000000000E-002   -1.069874263274201E-019
  1.010000000000000E-002   -1.242022405490875E-019
  1.020000000000000E-002   -1.337421750852141E-019
  1.030000000000000E-002   -1.333442307308940E-019
  1.040000000000000E-002   -1.212244316963197E-019
  1.050000000000000E-002   -9.632485420288464E-020
  1.060000000000000E-002   -5.853651526291375E-020
  1.070000000000000E-002   -8.873660708315114E-021
  1.080000000000000E-002    5.042433405032085E-020
  1.090000000000000E-002    1.158840621351410E-019
  1.100000000000000E-002    1.828974336243694E-019
  1.110000000000000E-002    2.459370206498778E-019
  1.120000000000000E-002    2.988861023026506E-019
  1.130000000000000E-002    3.354719153470904E-019
  1.140000000000000E-002    3.497802234788651E-019
  1.150000000000000E-002    3.368195382256187E-019
  1.160000000000000E-002    2.930945784933418E-019
  1.170000000000000E-002    2.171425702746086E-019
  1.180000000000000E-002    1.099824281002849E-019
  1.190000000000000E-002   -2.457308476531219E-020
  1.200000000000000E-002   -1.797881426690398E-019
  1.210000000000000E-002   -3.460956250114020E-019
  1.220000000000000E-002   -5.114360289210400E-019
  1.230000000000000E-002   -6.618542372164756E-019
  1.240000000000000E-002   -7.823460173868050E-019
  1.250000000000000E-002   -8.579260624155850E-019
  1.260000000000000E-002   -8.748663042306531E-019
  1.270000000000000E-002   -8.220330743020124E-019
  1.280000000000000E-002   -6.922306865889825E-019
  1.290000000000000E-002   -4.834439952258732E-019
  1.300000000000000E-002   -1.998616059227122E-019
  1.310000000000000E-002    1.474406917875366E-019
  1.320000000000000E-002    5.402708564052844E-019
  1.330000000000000E-002    9.536424170929989E-019
  1.340000000000000E-002    1.356715646443194E-018
  1.350000000000000E-002    1.714386482295531E-018
  1.360000000000000E-002    1.989501743369121E-018
  1.370000000000000E-002    2.145622531679742E-018
  1.380000000000000E-002    2.150194351407662E-018
  1.390000000000000E-002    1.977925739927546E-018
  1.400000000000000E-002    1.614119494569535E-018
  1.410000000000000E-002    1.057663102356174E-018
  1.420000000000000E-002    3.233615150484511E-019
  1.430000000000000E-002   -5.567000848496573E-019
  1.440000000000000E-002   -1.533044480757547E-018
  1.450000000000000E-002   -2.540158560146866E-018
  1.460000000000000E-002   -3.499440508789131E-018
  1.470000000000000E-002   -4.323741232053435E-018
  1.480000000000000E-002   -4.923360479660091E-018
  1.490000000000000E-002   -5.213209421024947E-018
  1.500000000000000E-002   -5.120702087754614E-018
  1.510000000000000E-002   -4.593803974180626E-018
  1.520000000000000E-002   -3.608570486817582E-018
  1.530000000000000E-002   -2.175446171425979E-018
  1.540000000000000E-002   -3.436010570642061E-019
  1.550000000000000E-002    1.797357067005815E-018
  1.560000000000000E-002    4.118821387934174E-018
  1.570000000000000E-002    6.458108057379267E-018
  1.580000000000000E-002    8.626938504468643E-018
  1.590000000000000E-002    1.042327123061946E-017
  1.600000000000000E-002    1.164595600182438E-017
  1.610000000000000E-002    1.211137743759791E-017
  1.620000000000000E-002    1.167098028767304E-017
  1.630000000000000E-002    1.022834637433505E-017
  1.640000000000000E-002    7.754364282071490E-018
  1.650000000000000E-002    4.298996805877274E-018
  1.660000000000000E-002   -1.760202066343381E-021
  1.670000000000000E-002   -4.924921663297842E-018
  1.680000000000000E-002   -1.016642360478027E-017
  1.690000000000000E-002   -1.535432243653964E-017
  1.700000000000000E-002   -2.006917804705842E-017
  1.710000000000000E-002   -2.387093248940669E-017
  1.720000000000000E-002   -2.633100991358023E-017
  1.730000000000000E-002   -2.706776898526308E-017
  1.740000000000000E-002   -2.578297038668932E-017
  1.750000000000000E-002   -2.229653111340294E-017
  1.760000000000000E-002   -1.657661890175841E-017
  1.770000000000000E-002   -8.762138242583375E-018
  1.780000000000000E-002    8.251422365837437E-019
  1.790000000000000E-002    1.168112500095352E-017
  1.800000000000000E-002    2.313420527575067E-017
  1.810000000000000E-002    3.437511031368791E-017
  1.820000000000000E-002    4.450143840983157E-017
  1.830000000000000E-002    5.257537329536703E-017
  1.840000000000000E-002    5.769185949317096E-017
  1.850000000000000E-002    5.905331530625650E-017
  1.860000000000000E-002    5.604595920560110E-017
  1.870000000000000E-002    4.831201744385150E-017