 -4.000000000000000E-002    0.000000000000000E+000
 -3.990000000000000E-002    0.000000000000000E+000
 -3.980000000000000E-002    0.000000000000000E+000
 -3.970000000000000E-002    0.000000000000000E+000
 -3.960000000000000E-002    0.000000000000000E+000
 -3.950000000000000E-002    0.000000000000000E+000
 -3.940000000000000E-002    0.000000000000000E+000
 -3.930000000000000E-002    0.000000000000000E+000
 -3.920000000000000E-002    0.000000000000000E+000
 -3.910000000000000E-002    0.000000000000000E+000
 -3.900000000000000E-002    0.000000000000000E+000
 -3.890000000000000E-002    0.000000000000000E+000
 -3.880000000000000E-002    0.000000000000000E+000
 -3.870000000000000E-002    0.000000000000000E+000
 -3.860000000000000E-002    0.000000000000000E+000
 -3.850000000000000E-002    0.000000000000000E+000
 -3.840000000000000E-002    0.000000000000000E+000
 -3.830000000000000E-002    0.000000000000000E+000
 -3.820000000000000E-002    0.000000000000000E+000
 -3.810000000000000E-002    0.000000000000000E+000
 -3.800000000000000E-002    0.000000000000000E+000
 -3.790000000000000E-002    0.000000000000000E+000
 -3.780000000000000E-002    0.000000000000000E+000
 -3.770000000000000E-002    0.000000000000000E+000
 -3.760000000000000E-002    0.000000000000000E+000
 -3.750000000000000E-002    0.000000000000000E+000
 -3.740000000000000E-002    0.000000000000000E+000
 -3.730000000000000E-002    0.000000000000000E+000
 -3.720000000000000E-002    0.000000000000000E+000
 -3.710000000000000E-002    0.000000000000000E+000
 -3.700000000000000E-002    0.000000000000000E+000
 -3.690000000000000E-002    0.000000000000000E+000
 -3.680000000000000E-002    0.000000000000000E+000
 -3.670000000000000E-002    0.000000000000000E+000
 -3.660000000000000E-002    0.000000000000000E+000
 -3.650000000000000E-002    0.000000000000000E+000
 -3.640000000000000E-002    0.000000000000000E+000
 -3.630000000000000E-002    0.000000000000000E+000
 -3.620000000000000E-002    0.000000000000000E+000
 -3.610000000000000E-002    0.000000000000000E+000
 -3.600000000000000E-002    0.000000000000000E+000
 -3.590000000000000E-002    0.000000000000000E+000
 -3.580000000000000E-002    0.000000000000000E+000
 -3.570000000000000E-002    0.000000000000000E+000
 -3.560000000000000E-002    0.000000000000000E+000
 -3.550000000000000E-002    0.000000000000000E+000
 -3.540000000000000E-002    0.000000000000000E+000
 -3.530000000000000E-002    0.000000000000000E+000
 -3.520000000000000E-002    0.000000000000000E+000
 -3.510000000000000E-002    0.000000000000000E+000
 -3.500000000000000E-002    0.000000000000000E+000
 -3.490000000000000E-002    0.000000000000000E+000
 -3.480000000000000E-002    0.000000000000000E+000
 -3.470000000000000E-002    0.000000000000000E+000
 -3.460000000000000E-002    0.000000000000000E+000
 -3.450000000000000E-002    0.000000000000000E+000
 -3.440000000000000E-002    0.000000000000000E+000
 -3.430000000000000E-002    0.000000000000000E+000
 -3.420000000000000E-002    0.000000000000000E+000
 -3.410000000000000E-002    0.000000000000000E+000
 -3.400000000000000E-002    0.000000000000000E+000
 -3.390000000000000E-002    0.000000000000000E+000
 -3.380000000000000E-002    0.000000000000000E+000
 -3.370000000000000E-002    0.000000000000000E+000
 -3.360000000000000E-002    0.000000000000000E+000
 -3.350000000000000E-002    0.000000000000000E+000
 -3.340000000000000E-002    0.000000000000000E+000
 -3.330000000000000E-002    0.000000000000000E+000
 -3.320000000000000E-002    0.000000000000000E+000
 -3.310000000000000E-002    0.000000000000000E+000
 -3.300000000000000E-002    0.000000000000000E+000
 -3.290000000000000E-002    0.000000000000000E+000
 -3.280000000000000E-002    0.000000000000000E+000
 -3.270000000000000E-002    0.000000000000000E+000
 -3.260000000000000E-002    0.000000000000000E+000
 -3.250000000000000E-002    0.000000000000000E+000
 -3.240000000000000E-002    0.000000000000000E+000
 -3.230000000000000E-002    0.000000000000000E+000
 -3.220000000000000E-002    0.000000000000000E+000
 -3.210000000000000E-002    0.000000000000000E+000
 -3.200000000000000E-002    0.000000000000000E+000
 -3.190000000000000E-002    0.000000000000000E+000
 -3.180000000000000E-002    0.000000000000000E+000
 -3.170000000000000E-002    0.000000000000000E+000
 -3.160000000000000E-002    0.000000000000000E+000
 -3.150000000000000E-002    0.000000000000000E+000
 -3.140000000000000E-002    0.000000000000000E+000
 -3.130000000000000E-002    0.000000000000000E+000
 -3.120000000000000E-002    0.000000000000000E+000
 -3.110000000000000E-002    0.000000000000000E+000
 -3.100000000000000E-002    0.000000000000000E+000
 -3.090000000000000E-002    0.000000000000000E+000
 -3.080000000000000E-002    0.000000000000000E+000
 -3.070000000000000E-002    0.000000000000000E+000
 -3.060000000000000E-002    0.000000000000000E+000
 -3.050000000000000E-002    0.000000000000000E+000
 -3.040000000000000E-002    0.000000000000000E+000
 -3.030000000000000E-002    0.000000000000000E+000
 -3.020000000000000E-002    0.000000000000000E+000
 -3.010000000000000E-002    0.000000000000000E+000
 -3.000000000000000E-002    0.000000000000000E+000
 -2.990000000000000E-002    0.000000000000000E+000
 -2.980000000000000E-002    0.000000000000000E+000
 -2.970000000000000E-002    0.000000000000000E+000
 -2.960000000000000E-002    0.000000000000000E+000
 -2.950000000000000E-002    0.000000000000000E+000
 -2.940000000000000E-002    0.000000000000000E+000
 -2.930000000000000E-002    0.000000000000000E+000
 -2.920000000000000E-002    0.000000000000000E+000
 -2.910000000000000E-002    0.000000000000000E+000
 -2.900000000000000E-002    0.000000000000000E+000
 -2.890000000000000E-002    0.000000000000000E+000
 -2.880000000000000E-002    0.000000000000000E+000
 -2.870000000000000E-002    0.000000000000000E+000
 -2.860000000000000E-002    0.000000000000000E+000
 -2.850000000000000E-002    0.000000000000000E+000
 -2.840000000000000E-002    0.000000000000000E+000
 -2.830000000000000E-002    0.000000000000000E+000
 -2.820000000000000E-002    0.000000000000000E+000
 -2.810000000000000E-002    0.000000000000000E+000
 -2.800000000000000E-002    0.000000000000000E+000
 -2.790000000000000E-002    0.000000000000000E+000
 -2.780000000000000E-002    0.000000000000000E+000
 -2.770000000000000E-002    0.000000000000000E+000
 -2.760000000000000E-002    0.000000000000000E+000
 -2.750000000000000E-002    0.000000000000000E+000
 -2.740000000000000E-002    0.000000000000000E+000
 -2.730000000000000E-002    0.000000000000000E+000
 -2.720000000000000E-002    0.000000000000000E+000
 -2.710000000000000E-002    0.000000000000000E+000
 -2.700000000000000E-002    0.000000000000000E+000
 -2.690000000000000E-002    0.000000000000000E+000
 -2.680000000000000E-002    0.000000000000000E+000
 -2.670000000000000E-002    0.000000000000000E+000
 -2.660000000000000E-002    0.000000000000000E+000
 -2.650000000000000E-002    0.000000000000000E+000
 -2.640000000000000E-002    0.000000000000000E+000
 -2.630000000000000E-002    0.000000000000000E+000
 -2.620000000000000E-002    0.000000000000000E+000
 -2.610000000000000E-002    0.000000000000000E+000
 -2.600000000000000E-002    0.000000000000000E+000
 -2.590000000000000E-002    0.000000000000000E+000
 -2.580000000000000E-002    0.000000000000000E+000
 -2.570000000000000E-002    0.000000000000000E+000
 -2.560000000000000E-002    0.000000000000000E+000
 -2.550000000000000E-002    0.000000000000000E+000
 -2.540000000000000E-002    0.000000000000000E+000
 -2.530000000000000E-002    0.000000000000000E+000
 -2.520000000000000E-002    0.000000000000000E+000
 -2.510000000000000E-002    0.000000000000000E+000
 -2.500000000000000E-002    0.000000000000000E+000
 -2.490000000000000E-002    0.000000000000000E+000
 -2.480000000000000E-002    0.000000000000000E+000
 -2.470000000000000E-002    0.000000000000000E+000
 -2.460000000000000E-002    0.000000000000000E+000
 -2.450000000000000E-002    0.000000000000000E+000
 -2.440000000000000E-002    0.000000000000000E+000
 -2.430000000000000E-002    0.000000000000000E+000
 -2.420000000000000E-002    0.000000000000000E+000
 -2.410000000000000E-002    0.000000000000000E+000
 -2.400000000000000E-002    0.000000000000000E+000
 -2.390000000000000E-002    0.000000000000000E+000
 -2.380000000000000E-002    0.000000000000000E+000
 -2.370000000000000E-002    0.000000000000000E+000
 -2.360000000000000E-002    0.000000000000000E+000
 -2.350000000000000E-002    0.000000000000000E+000
 -2.340000000000000E-002    0.000000000000000E+000
 -2.330000000000000E-002    0.000000000000000E+000
 -2.320000000000000E-002    0.000000000000000E+000
 -2.310000000000000E-002    0.000000000000000E+000
 -2.300000000000000E-002    0.000000000000000E+000
 -2.290000000000000E-002    0.000000000000000E+000
 -2.280000000000000E-002    0.000000000000000E+000
 -2.270000000000000E-002    0.000000000000000E+000
 -2.260000000000000E-002    0.000000000000000E+000
 -2.250000000000000E-002    0.000000000000000E+000
 -2.240000000000000E-002    0.000000000000000E+000
 -2.230000000000000E-002    0.000000000000000E+000
 -2.220000000000000E-002    0.000000000000000E+000
 -2.210000000000000E-002    0.000000000000000E+000
 -2.200000000000000E-002    0.000000000000000E+000
 -2.190000000000000E-002    0.000000000000000E+000
 -2.180000000000000E-002    0.000000000000000E+000
 -2.170000000000000E-002    0.000000000000000E+000
 -2.160000000000000E-002    0.000000000000000E+000
 -2.150000000000000E-002    0.000000000000000E+000
 -2.140000000000000E-002    0.000000000000000E+000
 -2.130000000000000E-002    0.000000000000000E+000
 -2.120000000000000E-002    0.000000000000000E+000
 -2.110000000000000E-002    0.000000000000000E+000
 -2.100000000000000E-002    0.000000000000000E+000
 -2.090000000000000E-002    0.000000000000000E+000
 -2.080000000000000E-002    0.000000000000000E+000
 -2.070000000000000E-002    0.000000000000000E+000
 -2.060000000000000E-002    0.000000000000000E+000
 -2.050000000000000E-002    0.000000000000000E+000
 -2.040000000000000E-002    0.000000000000000E+000
 -2.030000000000000E-002    0.000000000000000E+000
 -2.020000000000000E-002    0.000000000000000E+000
 -2.010000000000000E-002    0.000000000000000E+000
 -2.000000000000000E-002    0.000000000000000E+000
 -1.990000000000000E-002    0.000000000000000E+000
 -1.980000000000000E-002    0.000000000000000E+000
 -1.970000000000000E-002    0.000000000000000E+000
 -1.960000000000000E-002    0.000000000000000E+000
 -1.950000000000000E-002    0.000000000000000E+000
 -1.940000000000000E-002    0.000000000000000E+000
 -1.930000000000000E-002    0.000000000000000E+000
 -1.920000000000000E-002    0.000000000000000E+000
 -1.910000000000000E-002    0.000000000000000E+000
 -1.900000000000000E-002    0.000000000000000E+000
 -1.890000000000000E-002    0.000000000000000E+000
 -1.880000000000000E-002    0.000000000000000E+000
 -1.870000000000000E-002    0.000000000000000E+000
 -1.860000000000000E-002    0.000000000000000E+000
 -1.850000000000000E-002    0.000000000000000E+000
 -1.840000000000000E-002    0.000000000000000E+000
 -1.830000000000000E-002    0.000000000000000E+000
 -1.820000000000000E-002    0.000000000000000E+000
 -1.810000000000000E-002    0.000000000000000E+000
 -1.800000000000000E-002    0.000000000000000E+000
 -1.790000000000000E-002    0.000000000000000E+000
 -1.780000000000000E-002    0.000000000000000E+000
 -1.770000000000000E-002    0.000000000000000E+000
 -1.760000000000000E-002    0.000000000000000E+000
 -1.750000000000000E-002    0.000000000000000E+000
 -1.740000000000000E-002    0.000000000000000E+000
 -1.730000000000000E-002    0.000000000000000E+000
 -1.720000000000000E-002    0.000000000000000E+000
 -1.710000000000000E-002    0.000000000000000E+000
 -1.700000000000000E-002    0.000000000000000E+000
 -1.690000000000000E-002    0.000000000000000E+000
 -1.680000000000000E-002    0.000000000000000E+000
 -1.670000000000000E-002    0.000000000000000E+000
 -1.660000000000000E-002    0.000000000000000E+000
 -1.650000000000000E-002    0.000000000000000E+000
 -1.640000000000000E-002    0.000000000000000E+000
 -1.630000000000000E-002    0.000000000000000E+000
 -1.620000000000000E-002    0.000000000000000E+000
 -1.610000000000000E-002    0.000000000000000E+000
 -1.600000000000000E-002    0.000000000000000E+000
 -1.590000000000000E-002    0.000000000000000E+000
 -1.580000000000000E-002    0.000000000000000E+000
 -1.570000000000000E-002    0.000000000000000E+000
 -1.560000000000000E-002    0.000000000000000E+000
 -1.550000000000000E-002    0.000000000000000E+000
 -1.540000000000000E-002    0.000000000000000E+000
 -1.530000000000000E-002    0.000000000000000E+000
 -1.520000000000000E-002    0.000000000000000E+000
 -1.510000000000000E-002    0.000000000000000E+000
 -1.500000000000000E-002    0.000000000000000E+000
 -1.490000000000000E-002    0.000000000000000E+000
 -1.480000000000000E-002    0.000000000000000E+000
 -1.470000000000000E-002    0.000000000000000E+000
 -1.460000000000000E-002    0.000000000000000E+000
 -1.450000000000000E-002    0.000000000000000E+000
 -1.440000000000000E-002    0.000000000000000E+000
 -1.430000000000000E-002    0.000000000000000E+000
 -1.420000000000000E-002    0.000000000000000E+000
 -1.410000000000000E-002    0.000000000000000E+000
 -1.400000000000000E-002    0.000000000000000E+000
 -1.390000000000000E-002    0.000000000000000E+000
 -1.380000000000000E-002    0.000000000000000E+000
 -1.370000000000000E-002    0.000000000000000E+000
 -1.360000000000000E-002    0.000000000000000E+000
 -1.350000000000000E-002    0.000000000000000E+000
 -1.340000000000000E-002    0.000000000000000E+000
 -1.330000000000000E-002    0.000000000000000E+000
 -1.320000000000000E-002    0.000000000000000E+000
 -1.310000000000000E-002    0.000000000000000E+000
 -1.300000000000000E-002    2.538923162190576E-048
 -1.290000000000000E-002    7.616769486571727E-048
 -1.280000000000000E-002    1.269461581095288E-047
 -1.270000000000000E-002    2.521997020112799E-047
 -1.260000000000000E-002    3.774532459130310E-047
 -1.250000000000000E-002    4.002264101887227E-047
 -1.240000000000000E-002    2.723567989407576E-047
 -1.230000000000000E-002   -3.169638849152525E-047
 -1.220000000000000E-002   -1.082316575916825E-046
 -1.210000000000000E-002   -2.126181653690020E-046
 -1.200000000000000E-002   -3.138014178638839E-046
 -1.190000000000000E-002   -4.092649295024592E-046
 -1.180000000000000E-002   -4.940780035828688E-046
 -1.170000000000000E-002   -4.991749908690050E-046
 -1.160000000000000E-002   -4.353006639389503E-046
 -1.150000000000000E-002   -3.310981783227894E-046
 -1.140000000000000E-002   -1.082404738152442E-047
 -1.130000000000000E-002    5.214326660516645E-046
 -1.120000000000000E-002    1.265612644272893E-045
 -1.110000000000000E-002    2.034293387465526E-045
 -1.100000000000000E-002    2.899304622901708E-045
 -1.090000000000000E-002    3.929647119380727E-045
 -1.080000000000000E-002    4.497467800906066E-045
 -1.070000000000000E-002    4.391353994128060E-045
 -1.060000000000000E-002    3.630591541938819E-045
 -1.050000000000000E-002    1.540797882190827E-045
 -1.040000000000000E-002   -1.715497816839641E-045
 -1.030000000000000E-002   -5.772535586073008E-045
 -1.020000000000000E-002   -1.119874366343856E-044
 -1.010000000000000E-002   -1.733851895932627E-044
 -1.000000000000000E-002   -2.364248658511144E-044
 -9.899999999999999E-003   -2.822498137389143E-044
 -9.800000000000000E-003   -2.947243174327153E-044
 -9.699999999999999E-003   -2.564776210028513E-044
 -9.599999999999999E-003   -1.528215469907037E-044
 -9.500000000000000E-003    2.419756082335589E-045
 -9.399999999999999E-003    2.817138640943477E-044
 -9.299999999999999E-003    6.032549775887696E-044
 -9.200000000000000E-003    9.609522052097973E-044
 -9.099999999999999E-003    1.309234263916570E-043
 -8.999999999999999E-003    1.584877743667999E-043
 -8.900000000000000E-003    1.687560482950478E-043
 -8.799999999999999E-003    1.542405010709328E-043
 -8.699999999999999E-003    1.063014684628246E-043
 -8.600000000000000E-003    1.811740471505142E-044
 -8.499999999999999E-003   -1.123986043816168E-043
 -8.399999999999999E-003   -2.790027397083022E-043
 -8.300000000000000E-003   -4.697938856853427E-043
 -8.199999999999999E-003   -6.619473749916393E-043
 -8.100000000000000E-003   -8.219926510819751E-043
 -8.000000000000000E-003   -9.085189478954008E-043
 -7.899999999999999E-003   -8.792437594046026E-043
 -7.800000000000000E-003   -6.919721487891846E-043
 -7.699999999999999E-003   -3.154777864202417E-043
 -7.599999999999999E-003    2.644779546641413E-043
 -7.499999999999999E-003    1.031753090796006E-042
 -7.399999999999999E-003    1.935219830368119E-042
 -7.299999999999999E-003    2.882324499213971E-042
 -7.199999999999999E-003    3.741266366707544E-042
 -7.100000000000000E-003    4.346818236531173E-042
 -6.999999999999999E-003    4.511906542374916E-042
 -6.899999999999999E-003    4.054412416737561E-042
 -6.800000000000000E-003    2.819454175974882E-042
 -6.699999999999999E-003    7.148184008176063E-043
 -6.599999999999999E-003   -2.256078090333229E-042
 -6.499999999999999E-003   -5.968190410060638E-042
 -6.399999999999999E-003   -1.015209143338267E-041
 -6.299999999999999E-003   -1.438751961945531E-041
 -6.199999999999999E-003   -1.811637048035999E-041
 -6.100000000000000E-003   -2.067400094058693E-041
 -5.999999999999999E-003   -2.133884845260963E-041
 -5.899999999999999E-003   -1.940492296704186E-041
 -5.800000000000000E-003   -1.426412691334325E-041
 -5.699999999999999E-003   -5.501241825316838E-042
 -5.599999999999999E-003    7.012225959837875E-042
 -5.499999999999999E-003    2.302609923876611E-041
 -5.399999999999999E-003    4.183074166961105E-041
 -5.299999999999999E-003    6.218781926826478E-041
 -5.199999999999999E-003    8.227813570602015E-041
 -5.099999999999999E-003    9.968134035546941E-041
 -4.999999999999999E-003    1.113812100181404E-040
 -4.899999999999999E-003    1.138341488866237E-040
 -4.799999999999999E-003    1.031170251603910E-040
 -4.699999999999999E-003    7.519158755439507E-041
 -4.599999999999999E-003    2.633933690881184E-041
 -4.499999999999999E-003   -4.620745026704927E-041
 -4.399999999999999E-003   -1.433982833466814E-040
 -4.299999999999999E-003   -2.632818489388714E-040
 -4.199999999999999E-003   -3.997682341188979E-040
 -4.099999999999999E-003   -5.413823969954473E-040
 -3.999999999999999E-003   -6.702464600666549E-040
 -3.899999999999999E-003   -7.616194681293467E-040
 -3.799999999999999E-003   -7.844070713698001E-040
 -3.699999999999999E-003   -7.030636312543762E-040
 -3.599999999999999E-003   -4.812859499296781E-040
 -3.499999999999999E-003   -8.773393536035692E-041
 -3.399999999999999E-003    4.962611520144552E-040
 -3.299999999999999E-003    1.267432390378448E-039
 -3.199999999999999E-003    2.190696439064804E-039
 -3.099999999999999E-003    3.190160419796338E-039
 -2.999999999999999E-003    4.143030584599841E-039
 -2.899999999999999E-003    4.878834575937205E-039
 -2.799999999999999E-003    5.186465665165593E-039
 -2.699999999999999E-003    4.831238100192957E-039
 -2.599999999999999E-003    3.583313028861561E-039
 -2.499999999999999E-003    1.257425764495047E-039
 -2.399999999999999E-003   -2.238147751708507E-039
 -2.299999999999999E-003   -6.847845101337183E-039
 -2.199999999999999E-003   -1.231734693702759E-038
 -2.099999999999999E-003   -1.815379737124199E-038
 -1.999999999999999E-003   -2.360877104972572E-038
 -1.899999999999999E-003   -2.769550072206733E-038
 -1.799999999999999E-003   -2.925054264950075E-038
 -1.699999999999999E-003   -2.704660535748922E-038
 -1.599999999999999E-003   -1.995754758006578E-038
 -1.499999999999999E-003   -7.168648051095167E-039
 -1.399999999999999E-003    1.158421070564632E-038
 -1.299999999999999E-003    3.577290550695800E-038
 -1.199999999999999E-003    6.386877594232060E-038
 -1.099999999999999E-003    9.321036710852682E-038
 -9.999999999999989E-004    1.199926716852069E-037
 -8.999999999999990E-004    1.394201234357209E-037
 -7.999999999999990E-004    1.460553344689467E-037
 -6.999999999999989E-004    1.343774471399955E-037
 -5.999999999999990E-004    9.953854816184495E-038
 -4.999999999999989E-004    3.827524555897852E-038
 -3.999999999999989E-004   -5.010229227040259E-038
 -2.999999999999989E-004   -1.627554610820401E-037
 -1.999999999999989E-004   -2.925371511221083E-037
 -9.999999999999892E-005   -4.275459513318266E-037
  1.084202172485504E-018   -5.511768753057754E-037
  1.000000000000011E-004   -6.428146643377590E-037
  2.000000000000011E-004   -6.792761861546854E-037
  3.000000000000011E-004   -6.370446109900576E-037
  4.000000000000011E-004   -4.952513743000286E-037
  5.000000000000011E-004   -2.392571477525824E-037
  6.000000000000011E-004    1.354360615330620E-037
  7.000000000000011E-004    6.193275772491721E-037
  8.000000000000011E-004    1.185613033665236E-036
  9.000000000000012E-004    1.788011677417113E-036
  1.000000000000001E-003    2.360350252429945E-036
  1.100000000000001E-003    2.818509793857482E-036
  1.200000000000001E-003    3.065251582096006E-036
  1.300000000000001E-003    2.998256130101722E-036
  1.400000000000001E-003    2.521427578552724E-036
  1.500000000000001E-003    1.559139499650400E-036
  1.600000000000001E-003    7.262099730431812E-038
  1.700000000000001E-003   -1.922847675499125E-036
  1.800000000000001E-003   -4.341824748225295E-036
  1.900000000000001E-003   -7.016092301200445E-036
  2.000000000000001E-003   -9.688348796832380E-036
  2.100000000000001E-003   -1.201518474076324E-035
  2.200000000000001E-003   -1.358216851657765E-035
  2.300000000000001E-003   -1.393327449683687E-035
  2.400000000000001E-003   -1.261576847935472E-035
  2.500000000000001E-003   -9.240010529801285E-036
  2.600000000000001E-003   -3.551416979761017E-036
  2.700000000000001E-003    4.490772643101347E-036
  2.800000000000001E-003    1.463610407427713E-035
  2.900000000000001E-003    2.627772278881511E-035
  3.000000000000001E-003    3.841233104720933E-035
  3.100000000000001E-003    4.963923260866487E-035
  3.200000000000001E-003    5.821181361317012E-035
  3.300000000000001E-003    6.215211106654084E-035
  3.400000000000001E-003    5.943408143789348E-035
  3.500000000000001E-003    4.823358940591504E-035
  3.600000000000001E-003    2.723331600558672E-035
  3.700000000000001E-003   -4.040507082690099E-036
  3.800000000000001E-003   -4.488448280859123E-035
  3.900000000000001E-003   -9.313327379866084E-035
  4.000000000000001E-003   -1.449770766201137E-034
  4.100000000000001E-003   -1.949378528110070E-034
  4.200000000000001E-003   -2.360567328939876E-034
  4.300000000000001E-003   -2.603329320215379E-034
  4.400000000000001E-003   -2.594331223005895E-034
  4.500000000000001E-003   -2.256600027146995E-034
  4.600000000000002E-003   -1.531314573464928E-034
  4.700000000000001E-003   -3.907963864865629E-035
  4.800000000000001E-003    1.148624170107220E-034
  4.900000000000002E-003    3.015554255693426E-034
  5.000000000000001E-003    5.076233497240884E-034
  5.100000000000001E-003    7.132975434066380E-034
  5.200000000000001E-003    8.930185618817634E-034
  5.300000000000002E-003    1.016933442348598E-033
  5.400000000000001E-003    1.053352120868725E-033
  5.500000000000001E-003    9.721245183205427E-034
  5.600000000000002E-003    7.487763625283304E-034
  5.700000000000001E-003    3.691057177022321E-034
  5.800000000000001E-003   -1.661946064347707E-034
  5.900000000000002E-003   -8.374390530671893E-034
  6.000000000000001E-003   -1.603010517170515E-033
  6.100000000000001E-003   -2.398243125482870E-033
  6.200000000000002E-003   -3.136745764663903E-033
  6.300000000000002E-003   -3.714660808916952E-033
  6.400000000000001E-003   -4.018139279476667E-033
  6.500000000000001E-003   -3.934010395501668E-033
  6.600000000000002E-003   -3.363250783670698E-033
  6.700000000000001E-003   -2.236433934210647E-033
  6.800000000000001E-003   -5.298985438861442E-034
  6.900000000000002E-003    1.719031611801134E-033
  7.000000000000001E-003    4.399778158716226E-033
  7.100000000000001E-003    7.321373643099416E-033
  7.200000000000002E-003    1.021263854860289E-032
  7.300000000000002E-003    1.273159883163480E-032
  7.400000000000001E-003    1.448553063425469E-032
  7.500000000000001E-003    1.506218536701069E-032
  7.600000000000002E-003    1.407164716670300E-032
  7.700000000000001E-003    1.119689916434442E-032
  7.800000000000001E-003    6.249699907052316E-033
  7.900000000000001E-003   -7.731535461392718E-034
  8.000000000000002E-003   -9.639457024237437E-033
  8.100000000000001E-003   -1.984443673050673E-032
  8.200000000000001E-003   -3.059457066197147E-032
  8.300000000000002E-003   -4.081984089033899E-032
  8.400000000000001E-003   -4.922069940331410E-032
  8.500000000000002E-003   -5.435366668505561E-032
  8.600000000000002E-003   -5.475617629154795E-032
  8.700000000000001E-003   -4.910696195093978E-032
  8.800000000000002E-003   -3.641317493606772E-032
  8.900000000000002E-003   -1.621003561164453E-032
  9.000000000000001E-003    1.124632912725028E-032
  9.100000000000002E-003    4.481663763710484E-032
  9.200000000000002E-003    8.237323939618243E-032
  9.300000000000001E-003    1.207788434508320E-031
  9.400000000000002E-003    1.559735174297946E-031
  9.500000000000001E-003    1.831881965591640E-031
  9.600000000000001E-003    1.972934093366582E-031
  9.700000000000002E-003    1.932785554245921E-031
  9.800000000000001E-003    1.668415088989887E-031
  9.900000000000001E-003    1.150502779543220E-031
  1.000000000000000E-002    3.702116488515661E-032
  1.010000000000000E-002   -6.545826486760176E-032
  1.020000000000000E-002   -1.874444554537885E-031
  1.030000000000000E-002   -3.205799287855669E-031
  1.040000000000000E-002   -4.531471111864472E-031
  1.050000000000000E-002   -5.705053292648841E-031
  1.060000000000000E-002   -6.559578636688780E-031
  1.070000000000000E-002   -6.920599422100961E-031
  1.080000000000000E-002   -6.623330822454338E-031
  1.090000000000000E-002   -5.532988521867539E-031
  1.100000000000000E-002   -3.566889455474030E-031
  1.110000000000000E-002   -7.163577928382421E-032
  1.120000000000000E-002    2.933979387651061E-031
  1.130000000000000E-002    7.192216976883720E-031
  1.140000000000000E-002    1.175330974041787E-030
  1.150000000000000E-002    1.620391750212476E-030
  1.160000000000000E-002    2.004003513683999E-030
  1.170000000000000E-002    2.269862278602354E-030
  1.180000000000000E-002    2.360325568893987E-030
  1.190000000000000E-002    2.222232483783014E-030
  1.200000000000000E-002    1.813665141502237E-030
  1.210000000000000E-002    1.111159677579115E-030
  1.220000000000000E-002    1.167111325105153E-031
  1.230000000000000E-002   -1.136222479220242E-030
  1.240000000000000E-002   -2.578596096559271E-030
  1.250000000000000E-002   -4.104427629329493E-030
  1.260000000000000E-002   -5.573039511689428E-030
  1.270000000000000E-002   -6.815523236678314E-030
  1.280000000000000E-002   -7.645764508135633E-030
  1.290000000000000E-002   -7.875964767588787E-030
  1.300000000000000E-002   -7.336090724918446E-030
  1.310000000000000E-002   -5.896137839895732E-030
  1.320000000000000E-002   -3.489514153735491E-030
  1.330000000000000E-002   -1.353230871606173E-031
  1.340000000000000E-002    4.043094152278143E-030
  1.350000000000000E-002    8.806225593610936E-030
  1.360000000000000E-002    1.379592628289569E-029
  1.370000000000000E-002    1.854493526813722E-029
  1.380000000000000E-002    2.250021309833105E-029
  1.390000000000000E-002    2.506087478882891E-029
  1.400000000000000E-002    2.563011482702605E-029
  1.410000000000000E-002    2.367888186918748E-029
  1.420000000000000E-002    1.881726760786905E-029
  1.430000000000000E-002    1.086781696298811E-029
  1.440000000000000E-002   -6.658904670026096E-032
  1.450000000000000E-002   -1.354871823262241E-029
  1.460000000000000E-002   -2.877573180634793E-029
  1.470000000000000E-002   -4.457916810051470E-029
  1.480000000000000E-002   -5.946325512718401E-029
  1.490000000000000E-002   -7.168609561047074E-029
  1.500000000000000E-002   -7.938482323868757E-029
  1.510000000000000E-002   -8.074135549391363E-029
  1.520000000000000E-002   -7.418038121820877E-029
  1.530000000000000E-002   -5.858599684040273E-029
  1.540000000000000E-002   -3.351851348913447E-029
  1.550000000000000E-002    5.910359220374297E-031
  1.560000000000000E-002    4.229371493120552E-029
  1.570000000000000E-002    8.904813913882083E-029
  1.580000000000000E-002    1.372418726769654E-028
  1.590000000000000E-002    1.823269455310664E-028
  1.600000000000000E-002    2.190798065240104E-028
  1.610000000000000E-002    2.419854062609725E-028
  1.620000000000000E-002    2.457323407587262E-028
  1.630000000000000E-002    2.257918858567076E-028
  1.640000000000000E-002    1.790397995456453E-028
  1.650000000000000E-002    1.043668068988519E-028
  1.660000000000000E-002    3.214010157507283E-030
  1.670000000000000E-002   -1.200361776382966E-028
  1.680000000000000E-002   -2.578822217678034E-028
  1.690000000000000E-002   -3.998001636965796E-028
  1.700000000000000E-002   -5.326607928989259E-028
  1.710000000000000E-002   -6.414911069018626E-028
  1.720000000000000E-002   -7.105731832870447E-028
  1.730000000000000E-002   -7.248401020123672E-028
  1.740000000000000E-002   -6.714900208494547E-028
  1.750000000000000E-002   -5.417028204364450E-028
  1.760000000000000E-002   -3.323107135924530E-028
  1.770000000000000E-002   -4.724951573481882E-029
  1.780000000000000E-002    3.013951684711398E-028
  1.790000000000000E-002    6.929284782032177E-028
  1.800000000000000E-002    1.098333774989546E-027
  1.810000000000000E-002    1.481424911647450E-027
  1.820000000000000E-002    1.800918883583835E-027
  1.830000000000000E-002    2.013406523279379E-027
  1.840000000000000E-002    2.077106395647501E-027
  1.850000000000000E-002    1.956189696362486E-027
  1.860000000000000E-002    1.625368352194357E-027
  1.870000000000000E-002    1.074355623870367E-027