 -4.000000000000000E-002    0.000000000000000E+000
 -3.990000000000000E-002    0.000000000000000E+000
 -3.980000000000000E-002    0.000000000000000E+000
 -3.970000000000000E-002    0.000000000000000E+000
 -3.960000000000000E-002    0.000000000000000E+000
 -3.950000000000000E-002    0.000000000000000E+000
 -3.940000000000000E-002    0.000000000000000E+000
 -3.930000000000000E-002    0.000000000000000E+000
 -3.920000000000000E-002    0.000000000000000E+000
 -3.910000000000000E-002    0.000000000000000E+000
 -3.900000000000000E-002    0.000000000000000E+000
 -3.890000000000000E-002    0.000000000000000E+000
 -3.880000000000000E-002    0.000000000000000E+000
 -3.870000000000000E-002    0.000000000000000E+000
 -3.860000000000000E-002    0.000000000000000E+000
 -3.850000000000000E-002    0.000000000000000E+000
 -3.840000000000000E-002    0.000000000000000E+000
 -3.830000000000000E-002    0.000000000000000E+000
 -3.820000000000000E-002    0.000000000000000E+000
 -3.810000000000000E-002    0.000000000000000E+000
 -3.800000000000000E-002    0.000000000000000E+000
 -3.790000000000000E-002    0.000000000000000E+000
 -3.780000000000000E-002    0.000000000000000E+000
 -3.770000000000000E-002    0.000000000000000E+000
 -3.760000000000000E-002    0.000000000000000E+000
 -3.750000000000000E-002    0.000000000000000E+000
 -3.740000000000000E-002    0.000000000000000E+000
 -3.730000000000000E-002    0.000000000000000E+000
 -3.720000000000000E-002    0.000000000000000E+000
 -3.710000000000000E-002    0.000000000000000E+000
 -3.700000000000000E-002    0.000000000000000E+000
 -3.690000000000000E-002    0.000000000000000E+000
 -3.680000000000000E-002    0.000000000000000E+000
 -3.670000000000000E-002    0.000000000000000E+000
 -3.660000000000000E-002    0.000000000000000E+000
 -3.650000000000000E-002   -1.033939492443630E-047
 -3.640000000000000E-002    1.529514392782010E-047
 -3.630000000000000E-002    9.544987890592340E-047
 -3.620000000000000E-002    2.061949017396669E-046
 -3.610000000000000E-002    3.278514764523508E-046
 -3.600000000000000E-002    4.430481390473075E-046
 -3.590000000000000E-002    8.887111516285786E-046
 -3.580000000000000E-002    1.639083131301287E-045
 -3.570000000000000E-002    1.658026791280356E-045
 -3.560000000000000E-002    3.251468141432963E-047
 -3.550000000000000E-002   -5.276649407437016E-045
 -3.540000000000000E-002   -2.115851549251180E-044
 -3.530000000000000E-002   -6.075798082265968E-044
 -3.520000000000000E-002   -1.461655427555183E-043
 -3.510000000000000E-002   -3.158456270035760E-043
 -3.500000000000000E-002   -6.249407666771145E-043
 -3.490000000000000E-002   -1.141735994827512E-042
 -3.480000000000000E-002   -1.921500323692217E-042
 -3.470000000000000E-002   -2.937313726099221E-042
 -3.460000000000000E-002   -3.930139937416788E-042
 -3.450000000000000E-002   -4.117348197755598E-042
 -3.440000000000000E-002   -1.703492351105142E-042
 -3.430000000000000E-002    6.890257669252503E-042
 -3.420000000000000E-002    2.809372664130064E-041
 -3.410000000000000E-002    7.247066176838062E-041
 -3.400000000000000E-002    1.558641537771843E-040
 -3.390000000000000E-002    2.996201707421967E-040
 -3.380000000000000E-002    5.283491483082367E-040
 -3.370000000000000E-002    8.627004058682214E-040
 -3.360000000000000E-002    1.303282791899574E-039
 -3.350000000000000E-002    1.800610390557560E-039
 -3.340000000000000E-002    2.205084545458497E-039
 -3.330000000000000E-002    2.191684673906920E-039
 -3.320000000000000E-002    1.157617090218921E-039
 -3.310000000000000E-002   -1.900155399810078E-039
 -3.300000000000000E-002   -8.504211843361816E-039
 -3.290000000000000E-002   -2.076278952483406E-038
 -3.280000000000000E-002   -4.129377481239923E-038
 -3.270000000000000E-002   -7.286707814003777E-038
 -3.260000000000000E-002   -1.175689038547240E-037
 -3.250000000000000E-002   -1.752407667770533E-037
 -3.240000000000000E-002   -2.409253605832663E-037
 -3.230000000000000E-002   -3.010983454783029E-037
 -3.220000000000000E-002   -3.286317000296489E-037
 -3.210000000000000E-002   -2.767859204049398E-037
 -3.200000000000000E-002   -7.313482712688950E-038
 -3.190000000000000E-002    3.847560037001689E-037
 -3.180000000000000E-002    1.228833880434034E-036
 -3.170000000000000E-002    2.610681754053383E-036
 -3.160000000000000E-002    4.676137384512809E-036
 -3.150000000000000E-002    7.517069947881074E-036
 -3.140000000000000E-002    1.109274156117794E-035
 -3.130000000000000E-002    1.511482812911938E-035
 -3.120000000000000E-002    1.889488832915719E-035
 -3.110000000000000E-002    2.116208691091746E-035
 -3.100000000000000E-002    1.987355207984953E-035
 -3.090000000000000E-002    1.206054037204978E-035
 -3.080000000000000E-002   -6.219818405924867E-036
 -3.070000000000000E-002   -3.972694450687837E-035
 -3.060000000000000E-002   -9.354369105793884E-035
 -3.050000000000000E-002   -1.720971989441357E-034
 -3.040000000000000E-002   -2.775430553239552E-034
 -3.030000000000000E-002   -4.073974773630738E-034
 -3.020000000000000E-002   -5.513916956987425E-034
 -3.010000000000000E-002   -6.876828835291355E-034
 -3.000000000000000E-002   -7.788033763769669E-034
 -2.990000000000000E-002   -7.680661917910267E-034
 -2.980000000000000E-002   -5.775605310817274E-034
 -2.970000000000000E-002   -1.093230659548311E-034
 -2.960000000000000E-002    7.483058520310187E-034
 -2.950000000000000E-002    2.106861887992763E-033
 -2.940000000000000E-002    4.054215683451948E-033
 -2.930000000000000E-002    6.619574496534475E-033
 -2.920000000000000E-002    9.726505874395832E-033
 -2.910000000000000E-002    1.313556048837491E-032
 -2.900000000000000E-002    1.638119297975038E-032
 -2.890000000000000E-002    1.871180632031652E-032
 -2.880000000000000E-002    1.904667732408582E-032
 -2.870000000000000E-002    1.596877573341344E-032
 -2.860000000000000E-002    7.777226781474886E-033
 -2.850000000000000E-002   -7.373815586048233E-033
 -2.840000000000000E-002   -3.122341312143613E-032
 -2.830000000000000E-002   -6.501815099957347E-032
 -2.820000000000000E-002   -1.089838494245653E-031
 -2.810000000000000E-002   -1.616670862669627E-031
 -2.800000000000000E-002   -2.191894484157735E-031
 -2.790000000000000E-002   -2.744971316131639E-031
 -2.780000000000000E-002   -3.167350921114289E-031
 -2.770000000000000E-002   -3.309239693636305E-031
 -2.760000000000000E-002   -2.981618918044936E-031
 -2.750000000000000E-002   -1.966021590653438E-031
 -2.740000000000000E-002   -3.458237088099055E-033
 -2.730000000000000E-002    3.017537791497078E-031
 -2.720000000000000E-002    7.326229271189144E-031
 -2.710000000000000E-002    1.289955529294288E-030
 -2.700000000000000E-002    1.954883544176215E-030
 -2.690000000000000E-002    2.681571869342442E-030
 -2.680000000000000E-002    3.390485538156960E-030
 -2.670000000000000E-002    3.963561797064123E-030
 -2.660000000000000E-002    4.242972325854666E-030
 -2.650000000000000E-002    4.035412071217647E-030
 -2.640000000000000E-002    3.123896033602381E-030
 -2.630000000000000E-002    1.288817270447522E-030
 -2.620000000000000E-002   -1.660585535920109E-030
 -2.610000000000000E-002   -5.844269131656874E-030
 -2.600000000000000E-002   -1.126038257811074E-029
 -2.590000000000000E-002   -1.772869639116674E-029
 -2.580000000000000E-002   -2.483429002004575E-029
 -2.570000000000000E-002   -3.187986560786542E-029
 -2.560000000000000E-002   -3.785744626490969E-029
 -2.550000000000000E-002   -4.145201176372633E-029
 -2.540000000000000E-002   -4.109040672971056E-029
 -2.530000000000000E-002   -3.504792064198957E-029
 -2.520000000000000E-002   -2.162194162751311E-029
 -2.510000000000000E-002    6.236711110283687E-031
 -2.500000000000000E-002    3.254840530216255E-029
 -2.490000000000000E-002    7.407533218775969E-029
 -2.480000000000000E-002    1.238118299631330E-028
 -2.470000000000000E-002    1.786955471555188E-028
 -2.460000000000000E-002    2.337252596393743E-028
 -2.450000000000000E-002    2.818478295043060E-028
 -2.440000000000000E-002    3.140789824390668E-028
 -2.430000000000000E-002    3.199340324818072E-028
 -2.420000000000000E-002    2.882302972207008E-028
 -2.410000000000000E-002    2.082959618035982E-028
 -2.400000000000000E-002    7.157598237697211E-029
 -2.390000000000000E-002   -1.264327417040109E-028
 -2.380000000000000E-002   -3.840573841703770E-028
 -2.370000000000000E-002   -6.913563536944610E-028
 -2.360000000000000E-002   -1.028356928340320E-027
 -2.350000000000000E-002   -1.363988049603666E-027
 -2.340000000000000E-002   -1.656113184001571E-027
 -2.330000000000000E-002   -1.853063153077682E-027
 -2.320000000000000E-002   -1.897006591428036E-027
 -2.310000000000000E-002   -1.729359232377454E-027
 -2.300000000000000E-002   -1.298221058035590E-027
 -2.290000000000000E-002   -5.675381323209815E-028
 -2.280000000000000E-002    4.726674884002341E-028
 -2.270000000000000E-002    1.796043811481982E-027
 -2.260000000000000E-002    3.331050093752860E-027
 -2.250000000000000E-002    4.955218161007646E-027
 -2.240000000000000E-002    6.494419518551004E-027
 -2.230000000000000E-002    7.728970464187545E-027
 -2.220000000000000E-002    8.408064086342644E-027
 -2.210000000000000E-002    8.273341920358287E-027
 -2.200000000000000E-002    7.091375852418748E-027
 -2.190000000000000E-002    4.693486103161016E-027
 -2.180000000000000E-002    1.019703349813227E-027
 -2.170000000000000E-002   -3.837958684784981E-027
 -2.160000000000000E-002   -9.599310023319302E-027
 -2.150000000000000E-002   -1.577435551542313E-026
 -2.140000000000000E-002   -2.166410674753185E-026
 -2.130000000000000E-002   -2.639104490498397E-026
 -2.120000000000000E-002   -2.896459700954905E-026
 -2.110000000000000E-002   -2.838363839182937E-026
 -2.100000000000000E-002   -2.377338048525016E-026
 -2.090000000000000E-002   -1.454828492719336E-026
 -2.080000000000000E-002   -5.862132591171885E-028
 -2.070000000000000E-002    1.760720002220724E-026
 -2.060000000000000E-002    3.877016342807027E-026
 -2.050000000000000E-002    6.082158333534808E-026
 -2.040000000000000E-002    8.089224771374467E-026
 -2.030000000000000E-002    9.547500326473106E-026
 -2.020000000000000E-002    1.007097332386907E-025
 -2.010000000000000E-002    9.280467681660562E-026
 -2.000000000000000E-002    6.857779382729507E-026
 -1.990000000000000E-002    2.608051519533182E-026
 -1.980000000000000E-002   -3.475559892833305E-026
 -1.970000000000000E-002   -1.115287849647669E-025
 -1.960000000000000E-002   -1.989278168792846E-025
 -1.950000000000000E-002   -2.885442970876757E-025
 -1.940000000000000E-002   -3.690317853747144E-025
 -1.930000000000000E-002   -4.266880217115012E-025
 -1.920000000000000E-002   -4.465034467420114E-025
 -1.910000000000000E-002   -4.136706432417046E-025
 -1.900000000000000E-002   -3.154921841241726E-025
 -1.890000000000000E-002   -1.435576438236746E-025
 -1.880000000000000E-002    1.040030057476297E-025
 -1.870000000000000E-002    4.204402457445604E-025
 -1.860000000000000E-002    7.887704973880412E-025
 -1.850000000000000E-002    1.180933525426876E-024
 -1.840000000000000E-002    1.558010960744000E-024
 -1.830000000000000E-002    1.871746037050224E-024
 -1.820000000000000E-002    2.067511381209038E-024
 -1.810000000000000E-002    2.088747107620399E-024
 -1.800000000000000E-002    1.882739162806123E-024
 -1.790000000000000E-002    1.407427881768947E-024
 -1.780000000000000E-002    6.387631738787717E-025
 -1.770000000000000E-002   -4.220487168675094E-025
 -1.760000000000000E-002   -1.742198934699178E-024
 -1.750000000000000E-002   -3.252711785369649E-024
 -1.740000000000000E-002   -4.846565253249348E-024
 -1.730000000000000E-002   -6.380336876139133E-024
 -1.720000000000000E-002   -7.680056780363074E-024
 -1.710000000000000E-002   -8.551680231755946E-024
 -1.700000000000000E-002   -8.796226358619567E-024
 -1.690000000000000E-002   -8.229162049140565E-024
 -1.680000000000000E-002   -6.703052094423500E-024
 -1.670000000000000E-002   -4.131923828763172E-024
 -1.660000000000000E-002   -5.151993893785500E-025
 -1.650000000000000E-002    4.041466597818227E-024
 -1.640000000000000E-002    9.311464393050527E-024
 -1.630000000000000E-002    1.494177513485772E-023
 -1.620000000000000E-002    2.045973752798713E-023
 -1.610000000000000E-002    2.529440612134683E-023
 -1.600000000000000E-002    2.881377400310006E-023
 -1.590000000000000E-002    3.037768988952215E-023
 -1.580000000000000E-002    2.940431801000121E-023
 -1.570000000000000E-002    2.544585416998666E-023
 -1.560000000000000E-002    1.826691205046935E-023
 -1.550000000000000E-002    7.917006326164921E-024
 -1.540000000000000E-002   -5.212942531992683E-024
 -1.530000000000000E-002   -2.036069180149410E-023
 -1.520000000000000E-002   -3.639920475045301E-023
 -1.510000000000000E-002   -5.188730917323989E-023
 -1.500000000000000E-002   -6.516827164614718E-023
 -1.490000000000000E-002   -7.451483719393793E-023
 -1.480000000000000E-002   -7.831276638221803E-023
 -1.470000000000000E-002   -7.526810508852340E-023
 -1.460000000000000E-002   -6.461688600863651E-023
 -1.450000000000000E-002   -4.631097858234690E-023
 -1.440000000000000E-002   -2.115117887381612E-023
 -1.430000000000000E-002    9.160251845539487E-024
 -1.420000000000000E-002    4.207044087814497E-023
 -1.410000000000000E-002    7.434353791816779E-023
 -1.400000000000000E-002    1.023452221760816E-022
 -1.390000000000000E-002    1.224283495210553E-022
 -1.380000000000000E-002    1.313867830777416E-022
 -1.370000000000000E-002    1.269291563703383E-022
 -1.360000000000000E-002    1.081124327806164E-022
 -1.350000000000000E-002    7.567016770963599E-023
 -1.340000000000000E-002    3.217326501365107E-023
 -1.330000000000000E-002   -1.802595559651132E-023
 -1.320000000000000E-002   -6.909401783133087E-023
 -1.310000000000000E-002   -1.142585355566017E-022
 -1.300000000000000E-002   -1.465566242012040E-022
 -1.290000000000000E-002   -1.597192625546172E-022
 -1.280000000000000E-002   -1.490925633181991E-022
 -1.270000000000000E-002   -1.124787912973049E-022
 -1.260000000000000E-002   -5.077463077002061E-023
 -1.250000000000000E-002    3.170179155653724E-023
 -1.240000000000000E-002    1.272740610902112E-022
 -1.230000000000000E-002    2.253945361665066E-022
 -1.220000000000000E-002    3.135345287546339E-022
 -1.210000000000000E-002    3.784009720098749E-022
 -1.200000000000000E-002    4.073530501075922E-022
 -1.190000000000000E-002    3.898596499585505E-022
 -1.180000000000000E-002    3.188256910773929E-022
 -1.170000000000000E-002    1.916327663196009E-022
 -1.160000000000000E-002    1.077821450099147E-023
 -1.150000000000000E-002   -2.159436515930617E-022
 -1.140000000000000E-002   -4.757029810071661E-022
 -1.130000000000000E-002   -7.512625593277807E-022
 -1.120000000000000E-002   -1.021847253775033E-021
 -1.110000000000000E-002   -1.264117513645083E-021
 -1.100000000000000E-002   -1.453134275278098E-021
 -1.090000000000000E-002   -1.563261165629029E-021
 -1.080000000000000E-002   -1.569047516141720E-021
 -1.070000000000000E-002   -1.446231906256467E-021
 -1.060000000000000E-002   -1.173092110767310E-021
 -1.050000000000000E-002   -7.324051784612106E-022
 -1.040000000000000E-002   -1.142453691169856E-022
 -1.030000000000000E-002    6.802797222766720E-022
 -1.020000000000000E-002    1.634478127595385E-021
 -1.010000000000000E-002    2.711129336765090E-021
 -1.000000000000000E-002    3.847912794379349E-021
 -9.899999999999999E-003    4.954282541188651E-021
 -9.800000000000000E-003    5.911085857051815E-021
 -9.699999999999999E-003    6.574267214291857E-021
 -9.599999999999999E-003    6.783777516670105E-021
 -9.500000000000000E-003    6.378348258963284E-021
 -9.399999999999999E-003    5.215984672510437E-021
 -9.299999999999999E-003    3.199034986038033E-021
 -9.200000000000000E-003    3.015458213742472E-022
 -9.099999999999999E-003   -3.404479985836444E-021
 -8.999999999999999E-003   -7.728195270027697E-021
 -8.900000000000000E-003   -1.234909528979290E-020
 -8.799999999999999E-003   -1.682078535695257E-020
 -8.699999999999999E-003   -2.059289184856343E-020
 -8.600000000000000E-003   -2.305296987217522E-020
 -8.499999999999999E-003   -2.358775227289450E-020
 -8.399999999999999E-003   -2.166019596085556E-020
 -8.300000000000000E-003   -1.689565706253907E-020
 -8.199999999999999E-003   -9.167680751078420E-021
 -8.100000000000000E-003    1.328160504635485E-021
 -8.000000000000000E-003    1.402481521811647E-020
 -7.899999999999999E-003    2.797038908151093E-020
 -7.800000000000000E-003    4.186007546075050E-020
 -7.699999999999999E-003    5.411829545460909E-020
 -7.599999999999999E-003    6.303030643308656E-020
 -7.499999999999999E-003    6.691588562233546E-020
 -7.399999999999999E-003    6.433095261486169E-020
 -7.299999999999999E-003    5.427716868393409E-020
 -7.199999999999999E-003    3.639524132885032E-020
 -7.100000000000000E-003    1.111614797066955E-020
 -6.999999999999999E-003   -2.025406829232689E-020
 -6.899999999999999E-003   -5.553537006676136E-020
 -6.800000000000000E-003   -9.177215907386329E-020
 -6.699999999999999E-003   -1.254303428467175E-019
 -6.599999999999999E-003   -1.526825342391078E-019
 -6.499999999999999E-003   -1.697596342121418E-019
 -6.399999999999999E-003   -1.733372425245793E-019
 -6.299999999999999E-003   -1.609187023811076E-019
 -6.199999999999999E-003   -1.311741458628369E-019
 -6.100000000000000E-003   -8.419733617352594E-020
 -5.999999999999999E-003   -2.164919201082900E-020
 -5.899999999999999E-003    5.323209738941978E-020
 -5.800000000000000E-003    1.357606634691280E-019
 -5.699999999999999E-003    2.200641829556182E-019
 -5.599999999999999E-003    2.994551858875145E-019
 -5.499999999999999E-003    3.668807287074881E-019
 -5.399999999999999E-003    4.154129209222844E-019
 -5.299999999999999E-003    4.387420300959163E-019
 -5.199999999999999E-003    4.316385968563943E-019
 -5.099999999999999E-003    3.903586125624621E-019
 -4.999999999999999E-003    3.129773224858083E-019
 -4.899999999999999E-003    1.996465923729774E-019
 -4.799999999999999E-003    5.277897982554605E-020
 -4.699999999999999E-003   -1.228349435189683E-019
 -4.599999999999999E-003   -3.199720045289790E-019
 -4.499999999999999E-003   -5.289882729715265E-019
 -4.399999999999999E-003   -7.379131093608603E-019
 -4.299999999999999E-003   -9.326556721357427E-019
 -4.199999999999999E-003   -1.097364915427835E-018
 -4.099999999999999E-003   -1.214991651546237E-018
 -3.999999999999999E-003   -1.268097943572433E-018
 -3.899999999999999E-003   -1.239943285148807E-018
 -3.799999999999999E-003   -1.115850700888524E-018
 -3.699999999999999E-003   -8.848163037067475E-019
 -3.599999999999999E-003   -5.412777907733319E-019
 -3.499999999999999E-003   -8.690955225688609E-020
 -3.399999999999999E-003    4.677342973964791E-019
 -3.299999999999999E-003    1.101939207386998E-018
 -3.199999999999999E-003    1.784136265384590E-018
 -3.099999999999999E-003    2.472007318806984E-018
 -2.999999999999999E-003    3.113564212818544E-018
 -2.899999999999999E-003    3.649313039722737E-018
 -2.799999999999999E-003    4.015525764461735E-018
 -2.699999999999999E-003    4.148545196854130E-018
 -2.599999999999999E-003    3.989938182729708E-018
 -2.499999999999999E-003    3.492216283339748E-018
 -2.399999999999999E-003    2.624755969578322E-018
 -2.299999999999999E-003    1.379486309502585E-018
 -2.199999999999999E-003   -2.241169106448552E-019
 -2.099999999999999E-003   -2.135203752499991E-018
 -1.999999999999999E-003   -4.269335927024011E-018
 -1.899999999999999E-003   -6.508290528228986E-018
 -1.799999999999999E-003   -8.702225273782992E-018
 -1.699999999999999E-003   -1.067446798095386E-017
 -1.599999999999999E-003   -1.222910591387701E-017
 -1.499999999999999E-003   -1.316143525982009E-017
 -1.399999999999999E-003   -1.327120149715362E-017
 -1.299999999999999E-003   -1.237837854751189E-017
 -1.199999999999999E-003   -1.034102923452886E-017
 -1.099999999999999E-003   -7.074496470042840E-018
 -9.999999999999989E-004   -2.570864544550987E-018
 -8.999999999999990E-004    3.082736031837445E-018
 -7.999999999999990E-004    9.688791180317784E-018
 -6.999999999999989E-004    1.692914222494066E-017
 -5.999999999999990E-004    2.436214781280759E-017
 -4.999999999999989E-004    3.142964513351459E-017
 -3.999999999999989E-004    3.747586118845268E-017
 -2.999999999999989E-004    4.177983267054830E-017
 -1.999999999999989E-004    4.360207259242835E-017
 -9.999999999999892E-005    4.224478905433301E-017
  1.084202172485504E-018    3.712350279613992E-017
  1.000000000000011E-004    2.784594024216184E-017
  2.000000000000011E-004    1.429228311132726E-017
  3.000000000000011E-004   -3.310839453826015E-018
  4.000000000000011E-004   -2.433161345259109E-017
  5.000000000000011E-004   -4.769907033248394E-017
  6.000000000000011E-004   -7.190316734953902E-017
  7.000000000000011E-004   -9.503669222438522E-017
  8.000000000000011E-004   -1.148843213023701E-016
  9.000000000000012E-004   -1.290602658168834E-016
  1.000000000000001E-003   -1.351912549258166E-016
  1.100000000000001E-003   -1.311363159138314E-016
  1.200000000000001E-003   -1.152292494952991E-016
  1.300000000000001E-003   -8.652450456284179E-017
  1.400000000000001E-003   -4.502329352972185E-017
  1.500000000000001E-003    8.145831661158898E-018
  1.600000000000001E-003    7.061768442406558E-017
  1.700000000000001E-003    1.387758043360178E-016
  1.800000000000001E-003    2.078505211634993E-016
  1.900000000000001E-003    2.721399329083889E-016
  2.000000000000001E-003    3.253535601380948E-016
  2.100000000000001E-003    3.610668212609511E-016
  2.200000000000001E-003    3.732622047223052E-016
  2.300000000000001E-003    3.569206185258875E-016
  2.400000000000001E-003    3.086170756532837E-016
  2.500000000000001E-003    2.270674546873646E-016
  2.600000000000001E-003    1.135703152870514E-016
  2.700000000000001E-003   -2.771027355335045E-017
  2.800000000000001E-003   -1.896675074072567E-016
  2.900000000000001E-003   -3.624148028787148E-016
  3.000000000000001E-003   -5.337060857892765E-016
  3.100000000000001E-003   -6.896105292012414E-016
  3.200000000000001E-003   -8.154162827999364E-016
  3.300000000000001E-003   -8.967154236181061E-016
  3.400000000000001E-003   -9.206021385682056E-016
  3.500000000000001E-003   -8.768984965688511E-016
  3.600000000000001E-003   -7.593123299006488E-016
  3.700000000000001E-003   -5.664273991133840E-016
  3.800000000000001E-003   -3.024291713600523E-016
  3.900000000000001E-003    2.251786285758270E-017
  4.000000000000001E-003    3.923062090747813E-016
  4.100000000000001E-003    7.853735032450581E-016
  4.200000000000001E-003    1.175651249264398E-015
  4.300000000000001E-003    1.533948561483100E-015
  4.400000000000001E-003    1.829713243673969E-015
  4.500000000000001E-003    2.033078543908679E-015
  4.600000000000002E-003    2.117080052490891E-015
  4.700000000000001E-003    2.059904062617028E-015
  4.800000000000001E-003    1.847018776347459E-015
  4.900000000000002E-003    1.473033317869219E-015
  5.000000000000001E-003    9.431386931568900E-016
  5.100000000000001E-003    2.739966356197692E-016
  5.200000000000001E-003   -5.060314674090210E-016
  5.300000000000002E-003   -1.357395518804858E-015
  5.400000000000001E-003   -2.230648262047236E-015
  5.500000000000001E-003   -3.068519705181158E-015
  5.600000000000002E-003   -3.808729853088069E-015
  5.700000000000001E-003   -4.387453096010719E-015
  5.800000000000001E-003   -4.743302034093284E-015
  5.900000000000002E-003   -4.821651386522968E-015
  6.000000000000001E-003   -4.579092282568801E-015
  6.100000000000001E-003   -3.987762719591538E-015
  6.200000000000002E-003   -3.039278835053074E-015
  6.300000000000002E-003   -1.747976155142655E-015
  6.400000000000001E-003   -1.531597396165508E-016
  6.500000000000001E-003    1.679919866283615E-015
  6.600000000000002E-003    3.660623189099170E-015
  6.700000000000001E-003    5.675217517382354E-015
  6.800000000000001E-003    7.591040357455158E-015
  6.900000000000002E-003    9.262570019019235E-015
  7.000000000000001E-003    1.053931220049471E-014
  7.100000000000001E-003    1.127528363910672E-014
  7.200000000000002E-003    1.133971241958180E-014
  7.300000000000002E-003    1.062842642909647E-014
  7.400000000000001E-003    9.075248421351236E-015
  7.500000000000001E-003    6.662585978561653E-015
  7.600000000000002E-003    3.430320687087621E-015
  7.700000000000001E-003   -5.179509665415803E-016
  7.800000000000001E-003   -5.012232034080289E-015
  7.900000000000001E-003   -9.817816473523179E-015
  8.000000000000002E-003   -1.464197359824145E-014
  8.100000000000001E-003   -1.914598404787433E-014
  8.200000000000001E-003   -2.296252169510074E-014
  8.300000000000002E-003   -2.571795435080501E-014
  8.400000000000001E-003   -2.705869481187869E-014
  8.500000000000002E-003   -2.668024491858784E-014
  8.600000000000002E-003   -2.435713620888858E-014
  8.700000000000001E-003   -1.997160471504168E-014
  8.800000000000002E-003   -1.353858793896903E-014
  8.900000000000002E-003   -5.224519829988322E-015
  9.000000000000001E-003    4.642513440397348E-015
  9.100000000000002E-003    1.557335770119597E-014
  9.200000000000002E-003    2.693071832965534E-014
  9.300000000000001E-003    3.795527512438301E-014
  9.400000000000002E-003    4.780487627536760E-014
  9.500000000000001E-003    5.560569895451587E-014
  9.600000000000001E-003    6.051307393523669E-014
  9.700000000000002E-003    6.177862223688551E-014
  9.800000000000001E-003    5.881931086985265E-014
  9.900000000000001E-003    5.128335899552324E-014
  1.000000000000000E-002    3.910738923491976E-014
  1.010000000000000E-002    2.255921391964714E-014
  1.020000000000000E-002    2.261083859545695E-015
  1.030000000000000E-002   -2.081100296601861E-014
  1.040000000000000E-002   -4.535484518515165E-014
  1.050000000000000E-002   -6.979771058887598E-014
  1.060000000000000E-002   -9.237928177412328E-014
  1.070000000000000E-002   -1.112587656642049E-013
  1.080000000000000E-002   -1.246408135922653E-013
  1.090000000000000E-002   -1.309127983547708E-013
  1.100000000000000E-002   -1.287842662340537E-013
  1.110000000000000E-002   -1.174181578111870E-013
  1.120000000000000E-002   -9.654297088267831E-014
  1.130000000000000E-002   -6.653539533511175E-014
  1.140000000000000E-002   -2.846389769824445E-014
  1.150000000000000E-002    1.591377833509742E-014
  1.160000000000000E-002    6.420386133506477E-014
  1.170000000000000E-002    1.134814929220858E-013
  1.180000000000000E-002    1.604446081326308E-013
  1.190000000000000E-002    2.016100979053248E-013
  1.200000000000000E-002    2.335416415790048E-013
  1.210000000000000E-002    2.530955500224004E-013
  1.220000000000000E-002    2.576684917879829E-013
  1.230000000000000E-002    2.454292538458724E-013
  1.240000000000000E-002    2.155168041604504E-013
  1.250000000000000E-002    1.681877463096278E-013
  1.260000000000000E-002    1.048988034305170E-013
  1.270000000000000E-002    2.831363971970166E-014
  1.280000000000000E-002   -5.777230055692935E-014
  1.290000000000000E-002   -1.485896463352976E-013
  1.300000000000000E-002   -2.386308408456817E-013
  1.310000000000000E-002   -3.219532379374050E-013
  1.320000000000000E-002   -3.925336343047418E-013
  1.330000000000000E-002   -4.446546007853678E-013
  1.340000000000000E-002   -4.732987435032489E-013
  1.350000000000000E-002   -4.745262292364807E-013
  1.360000000000000E-002   -4.458099205988601E-013
  1.370000000000000E-002   -3.863047515179127E-013
  1.380000000000000E-002   -2.970299881874261E-013
  1.390000000000000E-002   -1.809482591912904E-013
  1.400000000000000E-002   -4.293022863990491E-014
  1.410000000000000E-002    1.103993486308410E-013
  1.420000000000000E-002    2.709323082961029E-013
  1.430000000000000E-002    4.294550712098598E-013
  1.440000000000000E-002    5.761183487685981E-013
  1.450000000000000E-002    7.009771763942675E-013
  1.460000000000000E-002    7.945747008593766E-013
  1.470000000000000E-002    8.485395927861333E-013
  1.480000000000000E-002    8.561644731452125E-013
  1.490000000000000E-002    8.129322516224745E-013
  1.500000000000000E-002    7.169574628508567E-013
  1.510000000000000E-002    5.693128102363888E-013
  1.520000000000000E-002    3.742134023965958E-013
  1.530000000000000E-002    1.390384899080593E-013
  1.540000000000000E-002   -1.258247678815571E-013
  1.550000000000000E-002   -4.073215260385556E-013
  1.560000000000000E-002   -6.902518166655828E-013
  1.570000000000000E-002   -9.579634074569755E-013
  1.580000000000000E-002   -1.193191743973125E-012
  1.590000000000000E-002   -1.379016108412668E-012
  1.600000000000000E-002   -1.499887687280280E-012
  1.610000000000000E-002   -1.542679431327148E-012
  1.620000000000000E-002   -1.497697883367738E-012
  1.630000000000000E-002   -1.359594566565007E-012
  1.640000000000000E-002   -1.128109746045985E-012
  1.650000000000000E-002   -8.085865595291833E-013
  1.660000000000000E-002   -4.121973006590551E-013
  1.670000000000000E-002    4.416436811469192E-014
  1.680000000000000E-002    5.383575228333779E-013
  1.690000000000000E-002    1.043845276873990E-012
  1.700000000000000E-002    1.530912847241526E-012
  1.710000000000000E-002    1.968214802759876E-012
  1.720000000000000E-002    2.324588745890233E-012
  1.730000000000000E-002    2.571046719086330E-012
  1.740000000000000E-002    2.682830791840313E-012
  1.750000000000000E-002    2.641404506688049E-012
  1.760000000000000E-002    2.436239965738519E-012
  1.770000000000000E-002    2.066254824414035E-012
  1.780000000000000E-002    1.540768460822143E-012
  1.790000000000000E-002    8.798574609736344E-013
  1.800000000000000E-002    1.140260323851434E-013
  1.810000000000000E-002   -7.168570366576379E-013
  1.820000000000000E-002   -1.565355267762716E-012
  1.830000000000000E-002   -2.378943166184790E-012
  1.840000000000000E-002   -3.103060174464337E-012
  1.850000000000000E-002   -3.684582474967212E-012
  1.860000000000000E-002   -4.075509497987328E-012
  1.870000000000000E-002   -4.236624982660413E-012