 -4.000000000000000E-002    0.000000000000000E+000
 -3.990000000000000E-002    0.000000000000000E+000
 -3.980000000000000E-002    0.000000000000000E+000
 -3.970000000000000E-002    0.000000000000000E+000
 -3.960000000000000E-002    0.000000000000000E+000
 -3.950000000000000E-002    0.000000000000000E+000
 -3.940000000000000E-002    0.000000000000000E+000
 -3.930000000000000E-002   -2.936328250921004E-027
 -3.920000000000000E-002   -4.008453687550588E-026
 -3.910000000000000E-002   -2.873097944941853E-025
 -3.900000000000000E-002   -1.433701106301542E-024
 -3.890000000000000E-002   -5.571991552815686E-024
 -3.880000000000000E-002   -1.788185593971219E-023
 -3.870000000000000E-002   -4.902085138699887E-023
 -3.860000000000000E-002   -1.170561389355867E-022
 -3.850000000000000E-002   -2.455953722468190E-022
 -3.840000000000000E-002   -4.514076296508686E-022
 -3.830000000000000E-002   -7.108168415113940E-022
 -3.820000000000000E-002   -8.911607736371978E-022
 -3.810000000000000E-002   -6.347556238333958E-022
 -3.800000000000000E-002    8.074194495086075E-022
 -3.790000000000000E-002    4.771391030625843E-021
 -3.780000000000000E-002    1.334223999529312E-020
 -3.770000000000000E-002    2.935803770429275E-020
 -3.760000000000000E-002    5.605518588932617E-020
 -3.750000000000000E-002    9.608028281776794E-020
 -3.740000000000000E-002    1.495469110087367E-019
 -3.730000000000000E-002    2.108384500732138E-019
 -3.720000000000000E-002    2.639968574067247E-019
 -3.710000000000000E-002    2.768463416478571E-019
 -3.700000000000000E-002    1.945119664772310E-019
 -3.690000000000000E-002   -6.628143884384039E-020
 -3.680000000000000E-002   -6.198509870721600E-019
 -3.670000000000000E-002   -1.607915795548820E-018
 -3.660000000000000E-002   -3.185652160185717E-018
 -3.650000000000000E-002   -5.493047941468624E-018
 -3.640000000000000E-002   -8.607565828400707E-018
 -3.630000000000000E-002   -1.247567195373482E-017
 -3.620000000000000E-002   -1.682380213995084E-017
 -3.610000000000000E-002   -2.105402131735809E-017
 -3.600000000000000E-002   -2.413597768410963E-017
 -3.590000000000000E-002   -2.451427329784945E-017
 -3.580000000000000E-002   -2.005849819613104E-017
 -3.570000000000000E-002   -8.090377059485715E-018
 -3.560000000000000E-002    1.447259222241455E-017
 -3.550000000000000E-002    5.081730199917714E-017
 -3.540000000000000E-002    1.037455039026618E-016
 -3.530000000000000E-002    1.749756290595814E-016
 -3.520000000000000E-002    2.642417742837640E-016
 -3.510000000000000E-002    3.682304181543799E-016
 -3.500000000000000E-002    4.794398250647568E-016
 -3.490000000000000E-002    5.850976395790603E-016
 -3.480000000000000E-002    6.663245763184232E-016
 -3.470000000000000E-002    6.977788679110172E-016
 -3.460000000000000E-002    6.480490589944801E-016
 -3.450000000000000E-002    4.810709206919868E-016
 -3.440000000000000E-002    1.588181890518760E-016
 -3.430000000000000E-002   -3.545536721923627E-016
 -3.420000000000000E-002   -1.087054406770448E-015
 -3.410000000000000E-002   -2.051813862207586E-015
 -3.400000000000000E-002   -3.238990749233136E-015
 -3.390000000000000E-002   -4.607242612992812E-015
 -3.380000000000000E-002   -6.075650746170318E-015
 -3.370000000000000E-002   -7.517262878336923E-015
 -3.360000000000000E-002   -8.755639132356408E-015
 -3.350000000000000E-002   -9.565914228051155E-015
 -3.340000000000000E-002   -9.681877060404022E-015
 -3.330000000000000E-002   -8.810358918191641E-015
 -3.320000000000000E-002   -6.653803368891367E-015
 -3.310000000000000E-002   -2.941215663487013E-015
 -3.300000000000000E-002    2.533220541535011E-015
 -3.290000000000000E-002    9.865680335579512E-015
 -3.280000000000000E-002    1.899545780220616E-014
 -3.270000000000000E-002    2.965928806872858E-014
 -3.260000000000000E-002    4.135269590173510E-014
 -3.250000000000000E-002    5.330469979961926E-014
 -3.240000000000000E-002    6.447250493191537E-014
 -3.230000000000000E-002    7.356257582753486E-014
 -3.220000000000000E-002    7.908326315949166E-014
 -3.210000000000000E-002    7.943221490141678E-014
 -3.200000000000000E-002    7.301878171390609E-014
 -3.190000000000000E-002    5.841797991626681E-014
 -3.180000000000000E-002    3.454826201840660E-014
 -3.170000000000000E-002    8.608875077155897E-016
 -3.160000000000000E-002   -4.247546340992577E-014
 -3.150000000000000E-002   -9.441449454001763E-014
 -3.140000000000000E-002   -1.529180414765157E-013
 -3.130000000000000E-002   -2.149091796433398E-013
 -3.120000000000000E-002   -2.763115278996202E-013
 -3.110000000000000E-002   -3.321885857631347E-013
 -3.100000000000000E-002   -3.769890217230265E-013
 -3.090000000000000E-002   -4.048941568748755E-013
 -3.080000000000000E-002   -4.102525293455271E-013
 -3.070000000000000E-002   -3.880747045314672E-013
 -3.060000000000000E-002   -3.345511043601933E-013
 -3.050000000000000E-002   -2.475469758964988E-013
 -3.040000000000000E-002   -1.270244779432402E-013
 -3.030000000000000E-002    2.465760286421857E-014
 -3.020000000000000E-002    2.026098008683686E-013
 -3.010000000000000E-002    3.994748564421123E-013
 -3.000000000000000E-002    6.057010540997848E-013
 -2.990000000000000E-002    8.100188459389437E-013
 -2.980000000000000E-002    1.000090379316346E-012
 -2.970000000000000E-002    1.163280227391070E-012
 -2.960000000000000E-002    1.287477863962581E-012
 -2.950000000000000E-002    1.361891630790352E-012
 -2.940000000000000E-002    1.377733694510071E-012
 -2.930000000000000E-002    1.328724921005767E-012
 -2.920000000000000E-002    1.211369353773498E-012
 -2.910000000000000E-002    1.024978933075564E-012
 -2.900000000000000E-002    7.714655257646579E-013
 -2.890000000000000E-002    4.549561001180683E-013
 -2.880000000000000E-002    8.132016567965778E-014
 -2.870000000000000E-002   -3.422762714066559E-013
 -2.860000000000000E-002   -8.076697269259911E-013
 -2.850000000000000E-002   -1.305742578970265E-012
 -2.840000000000000E-002   -1.826137390697157E-012
 -2.830000000000000E-002   -2.356625357582427E-012
 -2.820000000000000E-002   -2.882184776668554E-012
 -2.810000000000000E-002   -3.383926033256604E-012
 -2.800000000000000E-002   -3.838076058948546E-012
 -2.790000000000000E-002   -4.215295415845531E-012
 -2.780000000000000E-002   -4.480632328704996E-012
 -2.770000000000000E-002   -4.594401338624766E-012
 -2.760000000000000E-002   -4.514213290783159E-012
 -2.750000000000000E-002   -4.198263781594279E-012
 -2.740000000000000E-002   -3.609823600215831E-012
 -2.730000000000000E-002   -2.722672655812268E-012
 -2.720000000000000E-002   -1.527011733414006E-012
 -2.710000000000000E-002   -3.518332526319654E-014
 -2.700000000000000E-002    1.713608856870068E-012
 -2.690000000000000E-002    3.650464730279059E-012
 -2.680000000000000E-002    5.676677412892371E-012
 -2.670000000000000E-002    7.667023787593524E-012
 -2.660000000000000E-002    9.476838469167823E-012
 -2.650000000000000E-002    1.095283102315815E-011
 -2.640000000000000E-002    1.194712239528165E-011
 -2.630000000000000E-002    1.233342703070983E-011
 -2.620000000000000E-002    1.202382052992903E-011
 -2.610000000000000E-002    1.098412109641286E-011
 -2.600000000000000E-002    9.245705696652902E-012
 -2.590000000000000E-002    6.911604247178114E-012
 -2.580000000000000E-002    4.155027131576550E-012
 -2.570000000000000E-002    1.209106578023179E-012
 -2.560000000000000E-002   -1.652479686923280E-012
 -2.550000000000000E-002   -4.143214670222724E-012
 -2.540000000000000E-002   -5.997784243547589E-012
 -2.530000000000000E-002   -7.009249037359796E-012
 -2.520000000000000E-002   -7.065179839553295E-012
 -2.510000000000000E-002   -6.177920797989772E-012
 -2.500000000000000E-002   -4.504020245692297E-012
 -2.490000000000000E-002   -2.348344042374150E-012
 -2.480000000000000E-002   -1.495178748578060E-013
 -2.470000000000000E-002    1.554898026048428E-012
 -2.460000000000000E-002    2.182809113862468E-012
 -2.450000000000000E-002    1.178299343691408E-012
 -2.440000000000000E-002   -1.907270530488335E-012
 -2.430000000000000E-002   -7.332007613263991E-012
 -2.420000000000000E-002   -1.508807985013868E-011
 -2.410000000000000E-002   -2.484488588666189E-011
 -2.400000000000000E-002   -3.592116006607757E-011
 -2.390000000000000E-002   -4.729460200172269E-011
 -2.380000000000000E-002   -5.765450009500127E-011
 -2.370000000000000E-002   -6.549861219430208E-011
 -2.360000000000000E-002   -6.927046690573732E-011
 -2.350000000000000E-002   -6.752776089786259E-011
 -2.340000000000000E-002   -5.912747441825190E-011
 -2.330000000000000E-002   -4.340893608611734E-011
 -2.320000000000000E-002   -2.035358532804143E-011
 -2.310000000000000E-002    9.300578859197899E-012
 -2.300000000000000E-002    4.400978421010840E-011
 -2.290000000000000E-002    8.145592538249809E-011
 -2.280000000000000E-002    1.186671491216435E-010
 -2.270000000000000E-002    1.522270730035952E-010
 -2.260000000000000E-002    1.785620645547650E-010
 -2.250000000000000E-002    1.942857613431484E-010
 -2.240000000000000E-002    1.965708332469245E-010
 -2.230000000000000E-002    1.835108914533052E-010
 -2.220000000000000E-002    1.544320837175392E-010
 -2.210000000000000E-002    1.101139713092199E-010
 -2.200000000000000E-002    5.288485062347380E-011
 -2.190000000000000E-002   -1.343392064918637E-011
 -2.180000000000000E-002   -8.374625827750850E-011
 -2.170000000000000E-002   -1.520575211141472E-010
 -2.160000000000000E-002   -2.119856657734061E-010
 -2.150000000000000E-002   -2.573671886978029E-010
 -2.140000000000000E-002   -2.829029571108875E-010
 -2.130000000000000E-002   -2.847788643610195E-010
 -2.120000000000000E-002   -2.611919285088891E-010
 -2.110000000000000E-002   -2.127160809268750E-010
 -2.100000000000000E-002   -1.424526063739473E-010
 -2.090000000000000E-002   -5.592835349355033E-011
 -2.080000000000000E-002    3.927100562033352E-011
 -2.070000000000000E-002    1.341176690875138E-010
 -2.060000000000000E-002    2.189644309300455E-010
 -2.050000000000000E-002    2.845031372685575E-010
 -2.040000000000000E-002    3.227670267071821E-010
 -2.030000000000000E-002    3.280721066103105E-010
 -2.020000000000000E-002    2.977903841576386E-010
 -2.010000000000000E-002    2.328565476466754E-010
 -2.000000000000000E-002    1.379308417885197E-010
 -1.990000000000000E-002    2.117189907809244E-011
 -1.980000000000000E-002   -1.063875633036734E-010
 -1.970000000000000E-002   -2.318261506863799E-010
 -1.960000000000000E-002   -3.416015211937796E-010
 -1.950000000000000E-002   -4.229840616017857E-010
 -1.940000000000000E-002   -4.655122320956052E-010
 -1.930000000000000E-002   -4.623113413544096E-010
 -1.920000000000000E-002   -4.111200282338324E-010
 -1.910000000000000E-002   -3.148875806842932E-010
 -1.900000000000000E-002   -1.818426922687971E-010
 -1.890000000000000E-002   -2.498352737081426E-011
 -1.880000000000000E-002    1.390009384540489E-010
 -1.870000000000000E-002    2.913056556035510E-010
 -1.860000000000000E-002    4.129473497365721E-010
 -1.850000000000000E-002    4.868829162639963E-010
 -1.840000000000000E-002    5.000920803823033E-010
 -1.830000000000000E-002    4.453953980882447E-010
 -1.820000000000000E-002    3.227901918427011E-010
 -1.810000000000000E-002    1.401228411409140E-010
 -1.800000000000000E-002   -8.702631137763136E-011
 -1.790000000000000E-002   -3.362939131357894E-010
 -1.780000000000000E-002   -5.802824090441726E-010
 -1.770000000000000E-002   -7.889824192669819E-010
 -1.760000000000000E-002   -9.326633339048491E-010
 -1.750000000000000E-002   -9.849642394622643E-010
 -1.740000000000000E-002   -9.258786160459306E-010
 -1.730000000000000E-002   -7.443176778369693E-010
 -1.720000000000000E-002   -4.399611168668219E-010
 -1.710000000000000E-002   -2.416212403308987E-011
 -1.700000000000000E-002    4.802437283692470E-010
 -1.690000000000000E-002    1.040269255143750E-009
 -1.680000000000000E-002    1.615175108016929E-009
 -1.670000000000000E-002    2.159751980965585E-009
 -1.660000000000000E-002    2.628199501399329E-009
 -1.650000000000000E-002    2.978239847059371E-009
 -1.640000000000000E-002    3.175062415939704E-009
 -1.630000000000000E-002    3.194696006036965E-009
 -1.620000000000000E-002    3.026446597172246E-009
 -1.610000000000000E-002    2.674118992340864E-009
 -1.600000000000000E-002    2.155858697090904E-009
 -1.590000000000000E-002    1.502585841070388E-009
 -1.580000000000000E-002    7.551422883908087E-010
 -1.570000000000000E-002   -3.958810506968692E-011
 -1.560000000000000E-002   -8.332052211296631E-010
 -1.550000000000000E-002   -1.580500470871946E-009
 -1.540000000000000E-002   -2.243841624293488E-009
 -1.530000000000000E-002   -2.796748009014035E-009
 -1.520000000000000E-002   -3.226229471392941E-009
 -1.510000000000000E-002   -3.533582552733690E-009
 -1.500000000000000E-002   -3.733487298853604E-009
 -1.490000000000000E-002   -3.851427572398185E-009
 -1.480000000000000E-002   -3.919637722222655E-009
 -1.470000000000000E-002   -3.971952879489333E-009
 -1.460000000000000E-002   -4.038079905178356E-009
 -1.450000000000000E-002   -4.137895603404078E-009
 -1.440000000000000E-002   -4.276416383214320E-009
 -1.430000000000000E-002   -4.440052106782393E-009
 -1.420000000000000E-002   -4.594660111012428E-009
 -1.410000000000000E-002   -4.685762841650391E-009
 -1.400000000000000E-002   -4.641101811420670E-009
 -1.390000000000000E-002   -4.375467973552987E-009
 -1.380000000000000E-002   -3.797537656939591E-009
 -1.370000000000000E-002   -2.818224834626433E-009
 -1.360000000000000E-002   -1.359901745570555E-009
 -1.350000000000000E-002    6.342514611851677E-010
 -1.340000000000000E-002    3.191573021560292E-009
 -1.330000000000000E-002    6.302627098321510E-009
 -1.320000000000000E-002    9.915937981515998E-009
 -1.310000000000000E-002    1.393513552608454E-008
 -1.300000000000000E-002    1.821871318907706E-008
 -1.290000000000000E-002    2.258229631818655E-008
 -1.280000000000000E-002    2.680309957628171E-008
 -1.270000000000000E-002    3.062590820741203E-008
 -1.260000000000000E-002    3.376990171562442E-008
 -1.250000000000000E-002    3.593535608398236E-008
 -1.240000000000000E-002    3.680935041432805E-008
 -1.230000000000000E-002    3.606961631528921E-008
 -1.220000000000000E-002    3.338593376565353E-008
 -1.210000000000000E-002    2.841854840316909E-008
 -1.200000000000000E-002    2.081355316977867E-008
 -1.190000000000000E-002    1.019544698678669E-008
 -1.180000000000000E-002   -3.842650824365528E-009
 -1.170000000000000E-002   -2.175028034814639E-008
 -1.160000000000000E-002   -4.403139120777918E-008
 -1.150000000000000E-002   -7.125547651420004E-008
 -1.140000000000000E-002   -1.040666744974961E-007
 -1.130000000000000E-002   -1.431902911319661E-007
 -1.120000000000000E-002   -1.894351687073630E-007
 -1.110000000000000E-002   -2.436922153613966E-007
 -1.100000000000000E-002   -3.069281227435109E-007
 -1.090000000000000E-002   -3.801752671344124E-007
 -1.080000000000000E-002   -4.645177682941988E-007
 -1.070000000000000E-002   -5.610755705025845E-007
 -1.060000000000000E-002   -6.709871385584812E-007
 -1.050000000000000E-002   -7.953924066915644E-007
 -1.040000000000000E-002   -9.354181268380440E-007
 -1.030000000000000E-002   -1.092165733322236E-006
 -1.020000000000000E-002   -1.266704563238918E-006
 -1.010000000000000E-002   -1.460069479163965E-006
 -1.000000000000000E-002   -1.673265016200209E-006
 -9.899999999999999E-003   -1.907273738176095E-006
 -9.800000000000000E-003   -2.163070242396682E-006
 -9.699999999999999E-003   -2.441638487833494E-006
 -9.599999999999999E-003   -2.743991122402274E-006
 -9.500000000000000E-003   -3.071190245508728E-006
 -9.399999999999999E-003   -3.424365333322226E-006
 -9.299999999999999E-003   -3.804730306358912E-006
 -9.200000000000000E-003   -4.213595638497607E-006
 -9.099999999999999E-003   -4.652375956245829E-006
 -8.999999999999999E-003   -5.122591547168977E-006
 -8.900000000000000E-003   -5.625865382166367E-006
 -8.799999999999999E-003   -6.163917944390809E-006
 -8.699999999999999E-003   -6.738555825528688E-006
 -8.600000000000000E-003   -7.351661696826783E-006
 -8.499999999999999E-003   -8.005185574478614E-006
 -8.399999999999999E-003   -8.701135423681250E-006
 -8.300000000000000E-003   -9.441576139085053E-006
 -8.199999999999999E-003   -1.022863257701468E-005
 -8.100000000000000E-003   -1.106449803228653E-005
 -8.000000000000000E-003   -1.195145257736184E-005
 -7.899999999999999E-003   -1.289188652171763E-005
 -7.800000000000000E-003   -1.388832646745252E-005
 -7.699999999999999E-003   -1.494346688351161E-005
 -7.599999999999999E-003   -1.606020444991276E-005
 -7.499999999999999E-003   -1.724166804586687E-005
 -7.399999999999999E-003   -1.849124564897640E-005
 -7.299999999999999E-003   -1.981260659850263E-005
 -7.199999999999999E-003   -2.120971125053870E-005
 -7.100000000000000E-003   -2.268682229864774E-005
 -6.999999999999999E-003   -2.424849349561993E-005
 -6.899999999999999E-003   -2.589956403538022E-005
 -6.800000000000000E-003   -2.764514239752955E-005
 -6.699999999999999E-003   -2.949057751209810E-005
 -6.599999999999999E-003   -3.144143793815336E-005
 -6.499999999999999E-003   -3.350349905016497E-005
 -6.399999999999999E-003   -3.568272715197673E-005
 -6.299999999999999E-003   -3.798527215223761E-005
 -6.199999999999999E-003   -4.041747090337014E-005
 -6.100000000000000E-003   -4.298587025585883E-005
 -5.999999999999999E-003   -4.569725649885276E-005
 -5.899999999999999E-003   -4.855870052587212E-005
 -5.800000000000000E-003   -5.157759843831611E-005
 -5.699999999999999E-003   -5.476174928059216E-005
 -5.599999999999999E-003   -5.811938852327282E-005
 -5.499999999999999E-003   -6.165927665183989E-005
 -5.399999999999999E-003   -6.539073720113424E-005
 -5.299999999999999E-003   -6.932370661749051E-005
 -5.199999999999999E-003   -7.346877793916984E-005
 -5.099999999999999E-003   -7.783720559675607E-005
 -4.999999999999999E-003   -8.244093146351922E-005
 -4.899999999999999E-003   -8.729257167362931E-005
 -4.799999999999999E-003   -9.240541035244412E-005
 -4.699999999999999E-003   -9.779337936626111E-005
 -4.599999999999999E-003   -1.034710176581555E-004
 -4.499999999999999E-003   -1.094534696864248E-004
 -4.399999999999999E-003   -1.157564671525634E-004
 -4.299999999999999E-003   -1.223963112106838E-004
 -4.199999999999999E-003   -1.293898939434985E-004
 -4.099999999999999E-003   -1.367547069769814E-004
 -3.999999999999999E-003   -1.445089051448736E-004
 -3.899999999999999E-003   -1.526713637141877E-004
 -3.799999999999999E-003   -1.612617357814007E-004
 -3.699999999999999E-003   -1.703005148459830E-004
 -3.599999999999999E-003   -1.798091606625419E-004
 -3.499999999999999E-003   -1.898101561347140E-004
 -3.399999999999999E-003   -2.003270926541160E-004
 -3.299999999999999E-003   -2.113847653383696E-004
 -3.199999999999999E-003   -2.230091844298843E-004
 -3.099999999999999E-003   -2.352275915291104E-004
 -2.999999999999999E-003   -2.480685961071372E-004
 -2.899999999999999E-003   -2.615620458217308E-004
 -2.799999999999999E-003   -2.757391080329828E-004
 -2.699999999999999E-003   -2.906322269734632E-004
 -2.599999999999999E-003   -3.062750342551705E-004
 -2.499999999999999E-003   -3.227024239767626E-004
 -2.399999999999999E-003   -3.399504691307317E-004
 -2.299999999999999E-003   -3.580564670961920E-004
 -2.199999999999999E-003   -3.770589379801082E-004
 -2.099999999999999E-003   -3.969976437742456E-004
 -1.999999999999999E-003   -4.179136505410285E-004
 -1.899999999999999E-003   -4.398494183172003E-004
 -1.799999999999999E-003   -4.628489358688607E-004
 -1.699999999999999E-003   -4.869577883220627E-004
 -1.599999999999999E-003   -5.122232371161592E-004
 -1.499999999999999E-003   -5.386944534698445E-004
 -1.399999999999999E-003   -5.664226121420008E-004
 -1.299999999999999E-003   -5.954609600255953E-004
 -1.199999999999999E-003   -6.258649423453827E-004
 -1.099999999999999E-003   -6.576922556228694E-004
 -9.999999999999989E-004   -6.910029226233690E-004
 -8.999999999999990E-004   -7.258593819598195E-004
 -7.999999999999990E-004   -7.623264555570174E-004
 -6.999999999999989E-004   -8.004713536923781E-004
 -5.999999999999990E-004   -8.403635880036054E-004
 -4.999999999999989E-004   -8.820751228958173E-004
 -3.999999999999989E-004   -9.256801697047794E-004
 -2.999999999999989E-004   -9.712554028717802E-004
 -1.999999999999989E-004   -1.018879770141419E-003
 -9.999999999999892E-005   -1.068634407918087E-003
  1.084202172485504E-018   -1.120603092175224E-003
  1.000000000000011E-004   -1.174871942778515E-003
  2.000000000000011E-004   -1.231529585382407E-003
  3.000000000000011E-004   -1.290667341921386E-003
  4.000000000000011E-004   -1.352379184352776E-003
  5.000000000000011E-004   -1.416762010946255E-003
  6.000000000000011E-004   -1.483915559878200E-003
  7.000000000000011E-004   -1.553942829434127E-003
  8.000000000000011E-004   -1.626949877626194E-003
  9.000000000000012E-004   -1.703045987736596E-003
  1.000000000000001E-003   -1.782343755608475E-003
  1.100000000000001E-003   -1.864959236688407E-003
  1.200000000000001E-003   -1.951011805851102E-003
  1.300000000000001E-003   -2.040624223243190E-003
  1.400000000000001E-003   -2.133922942763754E-003
  1.500000000000001E-003   -2.231037587487544E-003
  1.600000000000001E-003   -2.332101217393992E-003
  1.700000000000001E-003   -2.437250454477300E-003
  1.800000000000001E-003   -2.546625338753178E-003
  1.900000000000001E-003   -2.660369176818052E-003
  2.000000000000001E-003   -2.778628703870777E-003
  2.100000000000001E-003   -2.901554723625350E-003
  2.200000000000001E-003   -3.029301032766427E-003
  2.300000000000001E-003   -3.162025335128181E-003
  2.400000000000001E-003   -3.299889262637455E-003
  2.500000000000001E-003   -3.443057825854809E-003
  2.600000000000001E-003   -3.591700113025290E-003
  2.700000000000001E-003   -3.745989021282951E-003
  2.800000000000001E-003   -3.906101104636830E-003
  2.900000000000001E-003   -4.072217034608755E-003
  3.000000000000001E-003   -4.244521128494713E-003
  3.100000000000001E-003   -4.423202037020077E-003
  3.200000000000001E-003   -4.608451585184077E-003
  3.300000000000001E-003   -4.800465821792187E-003
  3.400000000000001E-003   -4.999444368388400E-003
  3.500000000000001E-003   -5.205590245126584E-003
  3.600000000000001E-003   -5.419109744472363E-003
  3.700000000000001E-003   -5.640212316865704E-003
  3.800000000000001E-003   -5.869111378754868E-003
  3.900000000000001E-003   -6.106023030520668E-003
  4.000000000000001E-003   -6.351166317494242E-003
  4.100000000000001E-003   -6.604763783086691E-003
  4.200000000000001E-003   -6.867040962562838E-003
  4.300000000000001E-003   -7.138226218660234E-003
  4.400000000000001E-003   -7.418550638215382E-003
  4.500000000000001E-003   -7.708248563475833E-003
  4.600000000000002E-003   -8.007557296937588E-003
  4.700000000000001E-003   -8.316715945707856E-003
  4.800000000000001E-003   -8.635967777613097E-003
  4.900000000000002E-003   -8.965556644365692E-003
  5.000000000000001E-003   -9.305730817070923E-003
  5.100000000000001E-003   -9.656738883501544E-003
  5.200000000000001E-003   -1.001883172924510E-002
  5.300000000000002E-003   -1.039226189626300E-002
  5.400000000000001E-003   -1.077728365913393E-002
  5.500000000000001E-003   -1.117415104531978E-002
  5.600000000000002E-003   -1.158312071205818E-002
  5.700000000000001E-003   -1.200444730249573E-002
  5.800000000000001E-003   -1.243838656075787E-002
  5.900000000000002E-003   -1.288519417288583E-002
  6.000000000000001E-003   -1.334512503667956E-002
  6.100000000000001E-003   -1.381843447214930E-002
  6.200000000000002E-003   -1.430537403840764E-002
  6.300000000000002E-003   -1.480619831061954E-002
  6.400000000000001E-003   -1.532115677498059E-002
  6.500000000000001E-003   -1.585049932587240E-002
  6.600000000000002E-003   -1.639447360751556E-002
  6.700000000000001E-003   -1.695332341266025E-002
  6.800000000000001E-003   -1.752729228717083E-002
  6.900000000000002E-003   -1.811661703990541E-002
  7.000000000000001E-003   -1.872153631968857E-002
  7.100000000000001E-003   -1.934228065003974E-002
  7.200000000000002E-003   -1.997907835966984E-002
  7.300000000000002E-003   -2.063215140918304E-002
  7.400000000000001E-003   -2.130171653308268E-002
  7.500000000000001E-003   -2.198798406028299E-002
  7.600000000000002E-003   -2.269115859091753E-002
  7.700000000000001E-003   -2.341143418044099E-002
  7.800000000000001E-003   -2.414899997323116E-002
  7.900000000000001E-003   -2.490403362071016E-002
  8.000000000000002E-003   -2.567670499838809E-002
  8.100000000000001E-003   -2.646717487068381E-002
  8.200000000000001E-003   -2.727558988429583E-002
  8.300000000000002E-003   -2.810208827342160E-002
  8.400000000000001E-003   -2.894679597776425E-002
  8.500000000000002E-003   -2.980982962543684E-002
  8.600000000000002E-003   -3.069128787790717E-002
  8.700000000000001E-003   -3.159125948995111E-002
  8.800000000000002E-003   -3.250982067292541E-002
  8.900000000000002E-003   -3.344702635396216E-002
  9.000000000000001E-003   -3.440292577020683E-002
  9.100000000000002E-003   -3.537754493532145E-002
  9.200000000000002E-003   -3.637089704427666E-002
  9.300000000000001E-003   -3.738298020625314E-002
  9.400000000000002E-003   -3.841376750426378E-002
  9.500000000000001E-003   -3.946322172757711E-002
  9.600000000000001E-003   -4.053127667192333E-002
  9.700000000000002E-003   -4.161785291235354E-002
  9.800000000000001E-003   -4.272284690754313E-002
  9.900000000000001E-003   -4.384613248959383E-002
  1.000000000000000E-002   -4.498756096228921E-002
  1.010000000000000E-002   -4.614695908984257E-002
  1.020000000000000E-002   -4.732412823814421E-002
  1.030000000000000E-002   -4.851884464453228E-002
  1.040000000000000E-002   -4.973085610630427E-002
  1.050000000000000E-002   -5.095989073555333E-002
  1.060000000000000E-002   -5.220563908695142E-002
  1.070000000000000E-002   -5.346777402898737E-002
  1.080000000000000E-002   -5.474592981681466E-002
  1.090000000000000E-002   -5.603971551291111E-002
  1.100000000000000E-002   -5.734870468645845E-002
  1.110000000000000E-002   -5.867245196673800E-002
  1.120000000000000E-002   -6.001046616236629E-002
  1.130000000000000E-002   -6.136222834719156E-002
  1.140000000000000E-002   -6.272718808714203E-002
  1.150000000000000E-002   -6.410475766955209E-002
  1.160000000000000E-002   -6.549431624009633E-002
  1.170000000000000E-002   -6.689520296443312E-002
  1.180000000000000E-002   -6.830672021635678E-002
  1.190000000000000E-002   -6.972814352639102E-002
  1.200000000000000E-002   -7.115869519279652E-002
  1.210000000000000E-002   -7.259757552252137E-002
  1.220000000000000E-002   -7.404392746344707E-002
  1.230000000000000E-002   -7.549686341779771E-002
  1.240000000000000E-002   -7.695545991641485E-002
  1.250000000000000E-002   -7.841874744320326E-002
  1.260000000000000E-002   -7.988571369667248E-002
  1.270000000000000E-002   -8.135531124172339E-002
  1.280000000000000E-002   -8.282645050256635E-002
  1.290000000000000E-002   -8.429799683000147E-002
  1.300000000000000E-002   -8.576877249007583E-002
  1.310000000000000E-002   -8.723755786695155E-002
  1.320000000000000E-002   -8.870308670652029E-002
  1.330000000000000E-002   -9.016406663637355E-002
  1.340000000000000E-002   -9.161913716456020E-002
  1.350000000000000E-002   -9.306691923963388E-002
  1.360000000000000E-002   -9.450597329468191E-002
  1.370000000000000E-002   -9.593482302985160E-002
  1.380000000000000E-002   -9.735194143199201E-002
  1.390000000000000E-002   -9.875576860211027E-002
  1.400000000000000E-002   -0.100144695013073     
  1.410000000000000E-002   -0.101517073498527     
  1.420000000000000E-002   -0.102871205584556     
  1.430000000000000E-002   -0.104205355504953     
  1.440000000000000E-002   -0.105517740249673     
  1.450000000000000E-002   -0.106806544076981     
  1.460000000000000E-002   -0.108069896011753     
  1.470000000000000E-002   -0.109305904311091     
  1.480000000000000E-002   -0.110512628403410     
  1.490000000000000E-002   -0.111688082576084     
  1.500000000000000E-002   -0.112830254418577     
  1.510000000000000E-002   -0.113937089476464     
  1.520000000000000E-002   -0.115006495655065     
  1.530000000000000E-002   -0.116036345454454     
  1.540000000000000E-002   -0.117024479400954     
  1.550000000000000E-002   -0.117968700327104     
  1.560000000000000E-002   -0.118866786993387     
  1.570000000000000E-002   -0.119716483617344     
  1.580000000000000E-002   -0.120515500290637     
  1.590000000000000E-002   -0.121261522931927     
  1.600000000000000E-002   -0.121952209074366     
  1.610000000000000E-002   -0.122585206315845     
  1.620000000000000E-002   -0.123158110552248     
  1.630000000000000E-002   -0.123668516209125     
  1.640000000000000E-002   -0.124113986573711     
  1.650000000000000E-002   -0.124492075244292     
  1.660000000000000E-002   -0.124800316792817     
  1.670000000000000E-002   -0.125036234694482     
  1.680000000000000E-002   -0.125197342650627     
  1.690000000000000E-002   -0.125281127293009     
  1.700000000000000E-002   -0.125285097826604     
  1.710000000000000E-002   -0.125206729475331     
  1.720000000000000E-002   -0.125043518128738     
  1.730000000000000E-002   -0.124792940916313     
  1.740000000000000E-002   -0.124452482624572     
  1.750000000000000E-002   -0.124019646140214     
  1.760000000000000E-002   -0.123491928724158     
  1.770000000000000E-002   -0.122866835744111     
  1.780000000000000E-002   -0.122141887986176     
  1.790000000000000E-002   -0.121314625126057     
  1.800000000000000E-002   -0.120382595195781     
  1.810000000000000E-002   -0.119343376717720     
  1.820000000000000E-002   -0.118194565045335     
  1.830000000000000E-002   -0.116933786576915     
  1.840000000000000E-002   -0.115558698337263     
  1.850000000000000E-002   -0.114066980069030     
  1.860000000000000E-002   -0.112456361508070     
  1.870000000000000E-002   -0.110724598743154     