 -4.000000000000000E-002    0.000000000000000E+000
 -3.990000000000000E-002    1.429301201677156E-009
 -3.980000000000000E-002    4.230987416979130E-009
 -3.970000000000000E-002    8.217386074356245E-009
 -3.960000000000000E-002    1.310994123178713E-008
 -3.950000000000000E-002    1.859178475648807E-008
 -3.940000000000000E-002    2.435991594766070E-008
 -3.930000000000000E-002    3.016326754391012E-008
 -3.920000000000000E-002    3.581529647093282E-008
 -3.910000000000000E-002    4.117470528220338E-008
 -3.900000000000000E-002    4.609470349548823E-008
 -3.890000000000000E-002    5.034857075874684E-008
 -3.880000000000000E-002    5.354582994046079E-008
 -3.870000000000000E-002    5.505766233464140E-008
 -3.860000000000000E-002    5.397139836813714E-008
 -3.850000000000000E-002    4.909125054199562E-008
 -3.840000000000000E-002    3.899649153571234E-008
 -3.830000000000000E-002    2.215904419536979E-008
 -3.820000000000000E-002   -2.887846712880512E-009
 -3.810000000000000E-002   -3.734845387684344E-008
 -3.800000000000000E-002   -8.195777883663690E-008
 -3.790000000000000E-002   -1.368005699017415E-007
 -3.780000000000000E-002   -2.011873749546351E-007
 -3.770000000000000E-002   -2.736133223565983E-007
 -3.760000000000000E-002   -3.518154788483755E-007
 -3.750000000000000E-002   -4.329302371900004E-007
 -3.740000000000000E-002   -5.137375149325422E-007
 -3.730000000000000E-002   -5.909624674249755E-007
 -3.720000000000000E-002   -6.615947614132183E-007
 -3.710000000000000E-002   -7.231780363850214E-007
 -3.700000000000000E-002   -7.740219475318743E-007
 -3.690000000000000E-002   -8.132968284494490E-007
 -3.680000000000000E-002   -8.409846421310052E-007
 -3.670000000000000E-002   -8.576787015674625E-007
 -3.660000000000000E-002   -8.642470190897920E-007
 -3.650000000000000E-002   -8.613956736601701E-007
 -3.640000000000000E-002   -8.491858652964698E-007
 -3.630000000000000E-002   -8.265717487334886E-007
 -3.620000000000000E-002   -7.910274912722392E-007
 -3.610000000000000E-002   -7.383271230120745E-007
 -3.600000000000000E-002   -6.625239077668261E-007
 -3.590000000000000E-002   -5.561528626938912E-007
 -3.580000000000000E-002   -4.106507091838178E-007
 -3.570000000000000E-002   -2.169589300911056E-007
 -3.560000000000000E-002    3.375382398700852E-008
 -3.550000000000000E-002    3.493307418282786E-007
 -3.540000000000000E-002    7.359221607786025E-007
 -3.530000000000000E-002    1.197427911627225E-006
 -3.520000000000000E-002    1.735163968790188E-006
 -3.510000000000000E-002    2.347806581214077E-006
 -3.500000000000000E-002    3.031631624433287E-006
 -3.490000000000000E-002    3.781032257104128E-006
 -3.480000000000000E-002    4.589255826622596E-006
 -3.470000000000000E-002    5.449274141695735E-006
 -3.460000000000000E-002    6.354681623290463E-006
 -3.450000000000000E-002    7.300494696286207E-006
 -3.440000000000000E-002    8.283759063184494E-006
 -3.430000000000000E-002    9.303861856608994E-006
 -3.420000000000000E-002    1.036250792043035E-005
 -3.410000000000000E-002    1.146334163410515E-005
 -3.400000000000000E-002    1.261126063006749E-005
 -3.390000000000000E-002    1.381148621370231E-005
 -3.380000000000000E-002    1.506852343711427E-005
 -3.370000000000000E-002    1.638511721656335E-005
 -3.360000000000000E-002    1.776137116390953E-005
 -3.350000000000000E-002    1.919413458972782E-005
 -3.340000000000000E-002    2.067674885495509E-005
 -3.330000000000000E-002    2.219921646936234E-005
 -3.320000000000000E-002    2.374877691277249E-005
 -3.310000000000000E-002    2.531084153405261E-005
 -3.300000000000000E-002    2.687018152791682E-005
 -3.290000000000000E-002    2.841223584299569E-005
 -3.280000000000000E-002    2.992437496835853E-005
 -3.270000000000000E-002    3.139696821765845E-005
 -3.260000000000000E-002    3.282412658598042E-005
 -3.250000000000000E-002    3.420400001579297E-005
 -3.240000000000000E-002    3.553861693011907E-005
 -3.230000000000000E-002    3.683325436619021E-005
 -3.220000000000000E-002    3.809541651215310E-005
 -3.210000000000000E-002    3.933354887499943E-005
 -3.200000000000000E-002    4.055563900083804E-005
 -3.190000000000000E-002    4.176789140099227E-005
 -3.180000000000000E-002    4.297361875924518E-005
 -3.170000000000000E-002    4.417252640128664E-005
 -3.160000000000000E-002    4.536046484413290E-005
 -3.150000000000000E-002    4.652969191993802E-005
 -3.140000000000000E-002    4.766962793032840E-005
 -3.130000000000000E-002    4.876800853622494E-005
 -3.120000000000000E-002    4.981230561910465E-005
 -3.110000000000000E-002    5.079122909643664E-005
 -3.100000000000000E-002    5.169613191776454E-005
 -3.090000000000000E-002    5.252214831053353E-005
 -3.080000000000000E-002    5.326890303893872E-005
 -3.070000000000000E-002    5.394069972643131E-005
 -3.060000000000000E-002    5.454618880004812E-005
 -3.050000000000000E-002    5.509749831171460E-005
 -3.040000000000000E-002    5.560895752552593E-005
 -3.030000000000000E-002    5.609560109329273E-005
 -3.020000000000000E-002    5.657153827185243E-005
 -3.010000000000000E-002    5.704849133545100E-005
 -3.000000000000000E-002    5.753460882576862E-005
 -2.990000000000000E-002    5.803372268248273E-005
 -2.980000000000000E-002    5.854511982995234E-005
 -2.970000000000000E-002    5.906387928476237E-005
 -2.960000000000000E-002    5.958167358276012E-005
 -2.950000000000000E-002    6.008795653714208E-005
 -2.940000000000000E-002    6.057139771772614E-005
 -2.930000000000000E-002    6.102128994557106E-005
 -2.920000000000000E-002    6.142882747224182E-005
 -2.910000000000000E-002    6.178802848623170E-005
 -2.900000000000000E-002    6.209618944304782E-005
 -2.890000000000000E-002    6.235374978744295E-005
 -2.880000000000000E-002    6.256366786212357E-005
 -2.870000000000000E-002    6.273027326183345E-005
 -2.860000000000000E-002    6.285778438594454E-005
 -2.850000000000000E-002    6.294863903078069E-005
 -2.840000000000000E-002    6.300184183389022E-005
 -2.830000000000000E-002    6.301157294207635E-005
 -2.820000000000000E-002    6.296613152527112E-005
 -2.810000000000000E-002    6.284741755584632E-005
 -2.800000000000000E-002    6.263105586037392E-005
 -2.790000000000000E-002    6.228695255077473E-005
 -2.780000000000000E-002    6.178045296007336E-005
 -2.770000000000000E-002    6.107372537994660E-005
 -2.760000000000000E-002    6.012736610932946E-005
 -2.750000000000000E-002    5.890193887349913E-005
 -2.740000000000000E-002    5.735914225195370E-005
 -2.730000000000000E-002    5.546267518202256E-005
 -2.720000000000000E-002    5.317844525888104E-005
 -2.710000000000000E-002    5.047419537544844E-005
 -2.700000000000000E-002    4.731854597236074E-005
 -2.690000000000000E-002    4.367964761533836E-005
 -2.680000000000000E-002    3.952335649312335E-005
 -2.670000000000000E-002    3.481138129884076E-005
 -2.660000000000000E-002    2.949953519326888E-005
 -2.650000000000000E-002    2.353628039624263E-005
 -2.640000000000000E-002    1.686170332082252E-005
 -2.630000000000000E-002    9.407117150614303E-006
 -2.620000000000000E-002    1.095280067307402E-006
 -2.610000000000000E-002   -8.158880963391433E-006
 -2.600000000000000E-002   -1.844699890560562E-005
 -2.590000000000000E-002   -2.986563704098931E-005
 -2.580000000000000E-002   -4.251476021430991E-005
 -2.570000000000000E-002   -5.649633364755749E-005
 -2.560000000000000E-002   -7.191305585386983E-005
 -2.550000000000000E-002   -8.886796819665141E-005
 -2.540000000000000E-002   -1.074644489659136E-004
 -2.530000000000000E-002   -1.278070092864499E-004
 -2.520000000000000E-002   -1.500026072670539E-004
 -2.510000000000000E-002   -1.741626807598913E-004
 -2.500000000000000E-002   -2.004054165668274E-004
 -2.490000000000000E-002   -2.288579556633366E-004
 -2.480000000000000E-002   -2.596586828871742E-004
 -2.470000000000000E-002   -2.929590914035291E-004
 -2.460000000000000E-002   -3.289252672990252E-004
 -2.450000000000000E-002   -3.677382989013195E-004
 -2.440000000000000E-002   -4.095945558193265E-004
 -2.430000000000000E-002   -4.547048989485936E-004
 -2.420000000000000E-002   -5.032936911501445E-004
 -2.410000000000000E-002   -5.555971272036470E-004
 -2.400000000000000E-002   -6.118620376177572E-004
 -2.390000000000000E-002   -6.723438894426593E-004
 -2.380000000000000E-002   -7.373063471914156E-004
 -2.370000000000000E-002   -8.070204532027057E-004
 -2.360000000000000E-002   -8.817644823244174E-004
 -2.350000000000000E-002   -9.618258297770440E-004
 -2.340000000000000E-002   -1.047502042009502E-003
 -2.330000000000000E-002   -1.139102727194608E-003
 -2.320000000000000E-002   -1.236952807998613E-003
 -2.310000000000000E-002   -1.341394757870243E-003
 -2.300000000000000E-002   -1.452791688982238E-003
 -2.290000000000000E-002   -1.571529814123971E-003
 -2.280000000000000E-002   -1.698020064761461E-003
 -2.270000000000000E-002   -1.832699257462592E-003
 -2.260000000000000E-002   -1.976030694433656E-003
 -2.250000000000000E-002   -2.128504723558363E-003
 -2.240000000000000E-002   -2.290636978373625E-003
 -2.230000000000000E-002   -2.462968026915319E-003
 -2.220000000000000E-002   -2.646061419855741E-003
 -2.210000000000000E-002   -2.840502751550047E-003
 -2.200000000000000E-002   -3.046899050151310E-003
 -2.190000000000000E-002   -3.265877394414000E-003
 -2.180000000000000E-002   -3.498086063552441E-003
 -2.170000000000000E-002   -3.744194428727784E-003
 -2.160000000000000E-002   -4.004894901988055E-003
 -2.150000000000000E-002   -4.280906414971511E-003
 -2.140000000000000E-002   -4.572974617443033E-003
 -2.130000000000000E-002   -4.881877417188162E-003
 -2.120000000000000E-002   -5.208426340801642E-003
 -2.110000000000000E-002   -5.553471161792715E-003
 -2.100000000000000E-002   -5.917899801027208E-003
 -2.090000000000000E-002   -6.302642703632995E-003
 -2.080000000000000E-002   -6.708673643804867E-003
 -2.070000000000000E-002   -7.137009892115905E-003
 -2.060000000000000E-002   -7.588710439969420E-003
 -2.050000000000000E-002   -8.064878770786604E-003
 -2.040000000000000E-002   -8.566659914598660E-003
 -2.030000000000000E-002   -9.095239079917623E-003
 -2.020000000000000E-002   -9.651840784672109E-003
 -2.010000000000000E-002   -1.023772930423003E-002
 -2.000000000000000E-002   -1.085420699597070E-002
 -1.990000000000000E-002   -1.150261594385591E-002
 -1.980000000000000E-002   -1.218433941936273E-002
 -1.970000000000000E-002   -1.290080215494050E-002
 -1.960000000000000E-002   -1.365347254149344E-002
 -1.950000000000000E-002   -1.444387027368776E-002
 -1.940000000000000E-002   -1.527356136767363E-002
 -1.930000000000000E-002   -1.614416918037152E-002
 -1.920000000000000E-002   -1.705737090043472E-002
 -1.910000000000000E-002   -1.801490709651820E-002
 -1.900000000000000E-002   -1.901857449007599E-002
 -1.890000000000000E-002   -2.007023786693306E-002
 -1.880000000000000E-002   -2.117182245937679E-002
 -1.870000000000000E-002   -2.232531434372269E-002
 -1.860000000000000E-002   -2.353276413561367E-002
 -1.850000000000000E-002   -2.479628157980612E-002
 -1.840000000000000E-002   -2.611804026621814E-002
 -1.830000000000000E-002   -2.750026894887413E-002
 -1.820000000000000E-002   -2.894524966323595E-002
 -1.810000000000000E-002   -3.045533412359788E-002
 -1.800000000000000E-002   -3.203292039375912E-002
 -1.790000000000000E-002   -3.368047148157954E-002
 -1.780000000000000E-002   -3.540050720727118E-002
 -1.770000000000000E-002   -3.719561136657595E-002
 -1.760000000000000E-002   -3.906842980712030E-002
 -1.750000000000000E-002   -4.102167388713719E-002
 -1.740000000000000E-002   -4.305812644389288E-002
 -1.730000000000000E-002   -4.518063972388824E-002
 -1.720000000000000E-002   -4.739213844689389E-002
 -1.710000000000000E-002   -4.969562266335422E-002
 -1.700000000000000E-002   -5.209416352678508E-002
 -1.690000000000000E-002   -5.459091671483183E-002
 -1.680000000000000E-002   -5.718908319606223E-002
 -1.670000000000000E-002   -5.989196417090095E-002
 -1.660000000000000E-002   -6.270290817260259E-002
 -1.650000000000000E-002   -6.562533634120625E-002
 -1.640000000000000E-002   -6.866273234810535E-002
 -1.630000000000000E-002   -7.181863684755367E-002
 -1.620000000000000E-002   -7.509664989383052E-002
 -1.610000000000000E-002   -7.850042530497298E-002
 -1.600000000000000E-002   -8.203367362445708E-002
 -1.590000000000000E-002   -8.570015699786003E-002
 -1.580000000000000E-002   -8.950369191168278E-002
 -1.570000000000000E-002   -9.344815253629428E-002
 -1.560000000000000E-002   -9.753746403998471E-002
 -1.550000000000000E-002   -0.101775614826159     
 -1.540000000000000E-002   -0.106166649250051     
 -1.530000000000000E-002   -0.110714664343429     
 -1.520000000000000E-002   -0.115423805686419     
 -1.510000000000000E-002   -0.120298283994293     
 -1.500000000000000E-002   -0.125342352183579     
 -1.490000000000000E-002   -0.130560293153927     
 -1.480000000000000E-002   -0.135956469094863     
 -1.470000000000000E-002   -0.141535235619567     
 -1.460000000000000E-002   -0.147301001035215     
 -1.450000000000000E-002   -0.153258179949802     
 -1.440000000000000E-002   -0.159411231349498     
 -1.430000000000000E-002   -0.165764586458587     
 -1.420000000000000E-002   -0.172322728224659     
 -1.410000000000000E-002   -0.179090109000868     
 -1.400000000000000E-002   -0.186071193023663     
 -1.390000000000000E-002   -0.193270450595966     
 -1.380000000000000E-002   -0.200692326717642     
 -1.370000000000000E-002   -0.208341289099822     
 -1.360000000000000E-002   -0.216221787222026     
 -1.350000000000000E-002   -0.224338233453149     
 -1.340000000000000E-002   -0.232695037831111     
 -1.330000000000000E-002   -0.241296615691694     
 -1.320000000000000E-002   -0.250147312425375     
 -1.310000000000000E-002   -0.259251469135259     
 -1.300000000000000E-002   -0.268613345468287     
 -1.290000000000000E-002   -0.278237182418083     
 -1.280000000000000E-002   -0.288127131065030     
 -1.270000000000000E-002   -0.298287313684793     
 -1.260000000000000E-002   -0.308721699006822     
 -1.250000000000000E-002   -0.319434237714576     
 -1.240000000000000E-002   -0.330428709819135     
 -1.230000000000000E-002   -0.341708876601191     
 -1.220000000000000E-002   -0.353278298786826     
 -1.210000000000000E-002   -0.365140445227902     
 -1.200000000000000E-002   -0.377298670229524     
 -1.190000000000000E-002   -0.389756213406637     
 -1.180000000000000E-002   -0.402516104092273     
 -1.170000000000000E-002   -0.415581279367781     
 -1.160000000000000E-002   -0.428954514950165     
 -1.150000000000000E-002   -0.442638398846947     
 -1.140000000000000E-002   -0.456635376855730     
 -1.130000000000000E-002   -0.470947682643754     
 -1.120000000000000E-002   -0.485577381515761     
 -1.110000000000000E-002   -0.500526344955755     
 -1.100000000000000E-002   -0.515796263870260     
 -1.090000000000000E-002   -0.531388461090762     
 -1.080000000000000E-002   -0.547304128427486     
 -1.070000000000000E-002   -0.563544256097034     
 -1.060000000000000E-002   -0.580109427583084     
 -1.050000000000000E-002   -0.597000034633376     
 -1.040000000000000E-002   -0.614216134030738     
 -1.030000000000000E-002   -0.631757497980565     
 -1.020000000000000E-002   -0.649623642169904     
 -1.010000000000000E-002   -0.667813752278032     
 -1.000000000000000E-002   -0.686326655147891     
 -9.899999999999999E-003   -0.705160862380591     
 -9.800000000000000E-003   -0.724314574096182     
 -9.699999999999999E-003   -0.743785651171385     
 -9.599999999999999E-003   -0.763571573700096     
 -9.500000000000000E-003   -0.783669455641970     
 -9.399999999999999E-003   -0.804076047340935     
 -9.299999999999999E-003   -0.824787713530637     
 -9.200000000000000E-003   -0.845800460981861     
 -9.099999999999999E-003   -0.867109863539160     
 -8.999999999999999E-003   -0.888711062617205     
 -8.900000000000000E-003   -0.910598769768582     
 -8.799999999999999E-003   -0.932767293795293     
 -8.699999999999999E-003   -0.955210371604929     
 -8.600000000000000E-003   -0.977921383161414     
 -8.499999999999999E-003    -1.00089326991795     
 -8.399999999999999E-003    -1.02411844558568     
 -8.300000000000000E-003    -1.04758883729029     
 -8.199999999999999E-003    -1.07129592055935     
 -8.100000000000000E-003    -1.09523071051351     
 -8.000000000000000E-003    -1.11938359724784     
 -7.899999999999999E-003    -1.14374463270514     
 -7.800000000000000E-003    -1.16830328276192     
 -7.699999999999999E-003    -1.19304852682005     
 -7.599999999999999E-003    -1.21796889861646     
 -7.499999999999999E-003    -1.24305239461109     
 -7.399999999999999E-003    -1.26828655591765     
 -7.299999999999999E-003    -1.29365837872511     
 -7.199999999999999E-003    -1.31915416525874     
 -7.100000000000000E-003    -1.34475993872039     
 -6.999999999999999E-003    -1.37046102334259     
 -6.899999999999999E-003    -1.39624236872410     
 -6.800000000000000E-003    -1.42208831566329     
 -6.699999999999999E-003    -1.44798252805663     
 -6.599999999999999E-003    -1.47390834179661     
 -6.499999999999999E-003    -1.49984856356656     
 -6.399999999999999E-003    -1.52578537651894     
 -6.299999999999999E-003    -1.55170059136941     
 -6.199999999999999E-003    -1.57757536564948     
 -6.100000000000000E-003    -1.60339041159360     
 -5.999999999999999E-003    -1.62912604697467     
 -5.899999999999999E-003    -1.65476202498568     
 -5.800000000000000E-003    -1.68027763084159     
 -5.699999999999999E-003    -1.70565175805657     
 -5.599999999999999E-003    -1.73086287420247     
 -5.499999999999999E-003    -1.75588886926584     
 -5.399999999999999E-003    -1.78070735879916     
 -5.299999999999999E-003    -1.80529538113563     
 -5.199999999999999E-003    -1.82962976951601     
 -5.099999999999999E-003    -1.85368678693396     
 -4.999999999999999E-003    -1.87744240579068     
 -4.899999999999999E-003    -1.90087208763261     
 -4.799999999999999E-003    -1.92395125295874     
 -4.699999999999999E-003    -1.94665451532496     
 -4.599999999999999E-003    -1.96895663439931     
 -4.499999999999999E-003    -1.99083174817530     
 -4.399999999999999E-003    -2.01225388926634     
 -4.299999999999999E-003    -2.03319679439124     
 -4.199999999999999E-003    -2.05363394190905     
 -4.099999999999999E-003    -2.07353873148530     
 -3.999999999999999E-003    -2.09288419957640     
 -3.899999999999999E-003    -2.11164355161746     
 -3.799999999999999E-003    -2.12978976464331     
 -3.699999999999999E-003    -2.14729531685522     
 -3.599999999999999E-003    -2.16413326176492     
 -3.499999999999999E-003    -2.18027596056459     
 -3.399999999999999E-003    -2.19569618765244     
 -3.299999999999999E-003    -2.21036679770474     
 -3.199999999999999E-003    -2.22426027095101     
 -3.099999999999999E-003    -2.23734919551566     
 -2.999999999999999E-003    -2.24960653478336     
 -2.899999999999999E-003    -2.26100538855375     
 -2.799999999999999E-003    -2.27151871786459     
 -2.699999999999999E-003    -2.28111971218503     
 -2.599999999999999E-003    -2.28978171155599     
 -2.499999999999999E-003    -2.29747861768659     
 -2.399999999999999E-003    -2.30418465751576     
 -2.299999999999999E-003    -2.30987386494740     
 -2.199999999999999E-003    -2.31452117496938     
 -2.099999999999999E-003    -2.31810156062315     
 -1.999999999999999E-003    -2.32059047906822     
 -1.899999999999999E-003    -2.32196396214269     
 -1.799999999999999E-003    -2.32219869163652     
 -1.699999999999999E-003    -2.32127149669386     
 -1.599999999999999E-003    -2.31916014055415     
 -1.499999999999999E-003    -2.31584275463075     
 -1.399999999999999E-003    -2.31129827928804     
 -1.299999999999999E-003    -2.30550603677180     
 -1.199999999999999E-003    -2.29844637452613     
 -1.099999999999999E-003    -2.29010016295238     
 -9.999999999999989E-004    -2.28044879766535     
 -8.999999999999990E-004    -2.26947492988561     
 -7.999999999999990E-004    -2.25716167250839     
 -6.999999999999989E-004    -2.24349320669393     
 -5.999999999999990E-004    -2.22845471108822     
 -4.999999999999989E-004    -2.21203193484771     
 -3.999999999999989E-004    -2.19421189941953     
 -2.999999999999989E-004    -2.17498245095722     
 -1.999999999999989E-004    -2.15433275188302     
 -9.999999999999892E-005    -2.13225248831560     
  1.084202172485504E-018    -2.10873300519958     
  1.000000000000011E-004    -2.08376655339514     
  2.000000000000011E-004    -2.05734624253290     
  3.000000000000011E-004    -2.02946672131986     
  4.000000000000011E-004    -2.00012360578431     
  5.000000000000011E-004    -1.96931383752389     
  6.000000000000011E-004    -1.93703546216074     
  7.000000000000011E-004    -1.90328780518654     
  8.000000000000011E-004    -1.86807140414031     
  9.000000000000012E-004    -1.83138816882938     
  1.000000000000001E-003    -1.79324122246471     
  1.100000000000001E-003    -1.75363499372400     
  1.200000000000001E-003    -1.71257523263882     
  1.300000000000001E-003    -1.67006902352501     
  1.400000000000001E-003    -1.62612487701358     
  1.500000000000001E-003    -1.58075262111160     
  1.600000000000001E-003    -1.53396351078877     
  1.700000000000001E-003    -1.48577013438927     
  1.800000000000001E-003    -1.43618647989687     
  1.900000000000001E-003    -1.38522793923106     
  2.000000000000001E-003    -1.33291124440448     
  2.100000000000001E-003    -1.27925470494425     
  2.200000000000001E-003    -1.22427775727105     
  2.300000000000001E-003    -1.16800147610094     
  2.400000000000001E-003    -1.11044810997513     
  2.500000000000001E-003    -1.05164138319870     
  2.600000000000001E-003   -0.991606315165241     
  2.700000000000001E-003   -0.930369236820353     
  2.800000000000001E-003   -0.867957850112480     
  2.900000000000001E-003   -0.804401171265388     
  3.000000000000001E-003   -0.739729491794201     
  3.100000000000001E-003   -0.673974399059329     
  3.200000000000001E-003   -0.607168755190771     
  3.300000000000001E-003   -0.539346663895304     
  3.400000000000001E-003   -0.470543502798485     
  3.500000000000001E-003   -0.400795851634992     
  3.600000000000001E-003   -0.330141439799065     
  3.700000000000001E-003   -0.258619183250969     
  3.800000000000001E-003   -0.186269127225016     
  3.900000000000001E-003   -0.113132422678504     
  4.000000000000001E-003   -3.925123157144370E-002
  4.100000000000001E-003    3.533120820359041E-002
  4.200000000000001E-003    0.110570717253541     
  4.300000000000001E-003    0.186422171194184     
  4.400000000000001E-003    0.262839598761720     
  4.500000000000001E-003    0.339776123182963     
  4.600000000000002E-003    0.417184043540697     
  4.700000000000001E-003    0.495014926918991     
  4.800000000000001E-003    0.573219664162509     
  4.900000000000002E-003    0.651748406618026     
  5.000000000000001E-003    0.730550659342645     
  5.100000000000001E-003    0.809575380582754     
  5.200000000000001E-003    0.888770944497559     
  5.300000000000002E-003    0.968085195860597     
  5.400000000000001E-003     1.04746567801930     
  5.500000000000001E-003     1.12685930177667     
  5.600000000000002E-003     1.20621279123283     
  5.700000000000001E-003     1.28547245813022     
  5.800000000000001E-003     1.36458456602555     
  5.900000000000002E-003     1.44349503868758     
  6.000000000000001E-003     1.52214965551132     
  6.100000000000001E-003     1.60049441864502     
  6.200000000000002E-003     1.67847513860170     
  6.300000000000002E-003     1.75603764924769     
  6.400000000000001E-003     1.83312805966094     
  6.500000000000001E-003     1.90969230075363     
  6.600000000000002E-003     1.98567709116025     
  6.700000000000001E-003     2.06102915919712     
  6.800000000000001E-003     2.13569556451394     
  6.900000000000002E-003     2.20962375521567     
  7.000000000000001E-003     2.28276164585506     
  7.100000000000001E-003     2.35505764212726     
  7.200000000000002E-003     2.42646076290372     
  7.300000000000002E-003     2.49692051048194     
  7.400000000000001E-003     2.56638708388246     
  7.500000000000001E-003     2.63481157367716     
  7.600000000000002E-003     2.70214559480429     
  7.700000000000001E-003     2.76834170352865     
  7.800000000000001E-003     2.83335315365958     
  7.900000000000001E-003     2.89713457837514     
  8.000000000000002E-003     2.95964134588841     
  8.100000000000001E-003     3.02082981068882     
  8.200000000000001E-003     3.08065754879421     
  8.300000000000002E-003     3.13908304448773     
  8.400000000000001E-003     3.19606630834155     
  8.500000000000002E-003     3.25156827431450     
  8.600000000000002E-003     3.30555131596649     
  8.700000000000001E-003     3.35797902628313     
  8.800000000000002E-003     3.40881623791205     
  8.900000000000002E-003     3.45802932589555     
  9.000000000000001E-003     3.50558598933575     
  9.100000000000002E-003     3.55145540390544     
  9.200000000000002E-003     3.59560810594436     
  9.300000000000001E-003     3.63801610913582     
  9.400000000000002E-003     3.67865296959336     
  9.500000000000001E-003     3.71749357007861     
  9.600000000000001E-003     3.75451490096948     
  9.700000000000002E-003     3.78969504540526     
  9.800000000000001E-003     3.82301399978464     
  9.900000000000001E-003     3.85445334123079     
  1.000000000000000E-002     3.88399645676841     
  1.010000000000000E-002     3.91162811810124     
  1.020000000000000E-002     3.93733494373578     
  1.030000000000000E-002     3.96110512163933     
  1.040000000000000E-002     3.98292904626178     
  1.050000000000000E-002     4.00279807387987     
  1.060000000000000E-002     4.02070551986458     
  1.070000000000000E-002     4.03664686609312     
  1.080000000000000E-002     4.05061873268647     
  1.090000000000000E-002     4.06261948478231     
  1.100000000000000E-002     4.07264938002307     
  1.110000000000000E-002     4.08071017166666     
  1.120000000000000E-002     4.08680550927931     
  1.130000000000000E-002     4.09094042651648     
  1.140000000000000E-002     4.09312194661096     
  1.150000000000000E-002     4.09335858475187     
  1.160000000000000E-002     4.09166027445391     
  1.170000000000000E-002     4.08803886024864     
  1.180000000000000E-002     4.08250768691557     
  1.190000000000000E-002     4.07508174858415     
  1.200000000000000E-002     4.06577770564759     
  1.210000000000000E-002     4.05461301960699     
  1.220000000000000E-002     4.04160752021667     
  1.230000000000000E-002     4.02678170811057     
  1.240000000000000E-002     4.01015821181583     
  1.250000000000000E-002     3.99176068786832     
  1.260000000000000E-002     3.97161433554008     
  1.270000000000000E-002     3.94974524383753     
  1.280000000000000E-002     3.92618123470613     
  1.290000000000000E-002     3.90095115978545     
  1.300000000000000E-002     3.87408518964002     
  1.310000000000000E-002     3.84561458382130     
  1.320000000000000E-002     3.81557141562550     
  1.330000000000000E-002     3.78398937206751     
  1.340000000000000E-002     3.75090275734818     
  1.350000000000000E-002     3.71634717470791     
  1.360000000000000E-002     3.68035891207126     
  1.370000000000000E-002     3.64297525239920     
  1.380000000000000E-002     3.60423439986528     
  1.390000000000000E-002     3.56417542707828     
  1.400000000000000E-002     3.52283788644146     
  1.410000000000000E-002     3.48026214088562     
  1.420000000000000E-002     3.43648943933994     
  1.430000000000000E-002     3.39156141312503     
  1.440000000000000E-002     3.34552037870591     
  1.450000000000000E-002     3.29840901510985     
  1.460000000000000E-002     3.25027045346115     
  1.470000000000000E-002     3.20114822063393     
  1.480000000000000E-002     3.15108613939895     
  1.490000000000000E-002     3.10012854034449     
  1.500000000000000E-002     3.04831996515700     
  1.510000000000000E-002     2.99570482827325     
  1.520000000000000E-002     2.94232818552944     
  1.530000000000000E-002     2.88823482541128     
  1.540000000000000E-002     2.83346961205797     
  1.550000000000000E-002     2.77807747489360     
  1.560000000000000E-002     2.72210344470800     
  1.570000000000000E-002     2.66559224767234     
  1.580000000000000E-002     2.60858871404363     
  1.590000000000000E-002     2.55113732599867     
  1.600000000000000E-002     2.49328228426614     
  1.610000000000000E-002     2.43506781919250     
  1.620000000000000E-002     2.37653749066683     
  1.630000000000000E-002     2.31773471939630     
  1.640000000000000E-002     2.25870235726376     
  1.650000000000000E-002     2.19948290624485     
  1.660000000000000E-002     2.14011861006047     
  1.670000000000000E-002     2.08065081290606     
  1.680000000000000E-002     2.02112051155205     
  1.690000000000000E-002     1.96156813886090     
  1.700000000000000E-002     1.90203330775495     
  1.710000000000000E-002     1.84255527803648     
  1.720000000000000E-002     1.78317231490646     
  1.730000000000000E-002     1.72392205944516     
  1.740000000000000E-002     1.66484153246221     
  1.750000000000000E-002     1.60596691221739     
  1.760000000000000E-002     1.54733360938437     
  1.770000000000000E-002     1.48897615457273     
  1.780000000000000E-002     1.43092828925798     
  1.790000000000000E-002     1.37322274533703     
  1.800000000000000E-002     1.31589166603953     
  1.810000000000000E-002     1.25896600389793     
  1.820000000000000E-002     1.20247600238554     
  1.830000000000000E-002     1.14645081227973     
  1.840000000000000E-002     1.09091866576567     
  1.850000000000000E-002     1.03590682380932     
  1.860000000000000E-002    0.981441610487999     
  1.870000000000000E-002    0.927548341001915     