 -4.000000000000000E-002    0.000000000000000E+000
 -3.990000000000000E-002    0.000000000000000E+000
 -3.980000000000000E-002    0.000000000000000E+000
 -3.970000000000000E-002    0.000000000000000E+000
 -3.960000000000000E-002    0.000000000000000E+000
 -3.950000000000000E-002    0.000000000000000E+000
 -3.940000000000000E-002    0.000000000000000E+000
 -3.930000000000000E-002    0.000000000000000E+000
 -3.920000000000000E-002    0.000000000000000E+000
 -3.910000000000000E-002    0.000000000000000E+000
 -3.900000000000000E-002    0.000000000000000E+000
 -3.890000000000000E-002    0.000000000000000E+000
 -3.880000000000000E-002    0.000000000000000E+000
 -3.870000000000000E-002    0.000000000000000E+000
 -3.860000000000000E-002    0.000000000000000E+000
 -3.850000000000000E-002    0.000000000000000E+000
 -3.840000000000000E-002    0.000000000000000E+000
 -3.830000000000000E-002    2.889763196805103E-047
 -3.820000000000000E-002    1.565858971952166E-046
 -3.810000000000000E-002    1.708859411924077E-045
 -3.800000000000000E-002    1.504891467749427E-044
 -3.790000000000000E-002    9.501051260468628E-044
 -3.780000000000000E-002    5.197232051644461E-043
 -3.770000000000000E-002    2.494573367360606E-042
 -3.760000000000000E-002    1.067628919558596E-041
 -3.750000000000000E-002    4.128243342927209E-041
 -3.740000000000000E-002    1.457374794209447E-040
 -3.730000000000000E-002    4.736551068877014E-040
 -3.720000000000000E-002    1.426532667403496E-039
 -3.710000000000000E-002    4.001285468826996E-039
 -3.700000000000000E-002    1.049038064291985E-038
 -3.690000000000000E-002    2.576665387598123E-038
 -3.680000000000000E-002    5.934440532076488E-038
 -3.670000000000000E-002    1.280472845923231E-037
 -3.660000000000000E-002    2.579646122747413E-037
 -3.650000000000000E-002    4.816250183375899E-037
 -3.640000000000000E-002    8.207323046022159E-037
 -3.630000000000000E-002    1.234893232461605E-036
 -3.620000000000000E-002    1.501329872198374E-036
 -3.610000000000000E-002    9.701918041054750E-037
 -3.600000000000000E-002   -1.880264868353511E-036
 -3.590000000000000E-002   -1.017089936255320E-035
 -3.580000000000000E-002   -2.967794207836851E-035
 -3.570000000000000E-002   -7.013798197468245E-035
 -3.560000000000000E-002   -1.464285283289057E-034
 -3.550000000000000E-002   -2.786972725559584E-034
 -3.540000000000000E-002   -4.895981695168831E-034
 -3.530000000000000E-002   -7.954615223099993E-034
 -3.520000000000000E-002   -1.186543423023896E-033
 -3.510000000000000E-002   -1.589787509541904E-033
 -3.500000000000000E-002   -1.806526194506383E-033
 -3.490000000000000E-002   -1.418598198148171E-033
 -3.480000000000000E-002    3.384123707486448E-034
 -3.470000000000000E-002    4.723841391028870E-033
 -3.460000000000000E-002    1.362880364292263E-032
 -3.450000000000000E-002    2.963110728312966E-032
 -3.440000000000000E-002    5.584658381368151E-032
 -3.430000000000000E-002    9.539058286146446E-032
 -3.420000000000000E-002    1.501952899706449E-031
 -3.410000000000000E-002    2.188762389056896E-031
 -3.400000000000000E-002    2.933386783224938E-031
 -3.390000000000000E-002    3.539112938361067E-031
 -3.380000000000000E-002    3.630567224031925E-031
 -3.370000000000000E-002    2.582069973221220E-031
 -3.360000000000000E-002   -5.492121246323943E-032
 -3.350000000000000E-002   -7.060275729331763E-031
 -3.340000000000000E-002   -1.856980576558925E-030
 -3.330000000000000E-002   -3.686024144834451E-030
 -3.320000000000000E-002   -6.352353966862169E-030
 -3.310000000000000E-002   -9.933155507784085E-030
 -3.300000000000000E-002   -1.432579760630241E-029
 -3.290000000000000E-002   -1.911090828981480E-029
 -3.280000000000000E-002   -2.337860789504366E-029
 -3.270000000000000E-002   -2.553136034973188E-029
 -3.260000000000000E-002   -2.309349407088991E-029
 -3.250000000000000E-002   -1.257928936168000E-029
 -3.240000000000000E-002    1.050243843792298E-029
 -3.230000000000000E-002    5.140248076606637E-029
 -3.220000000000000E-002    1.155171441022619E-028
 -3.210000000000000E-002    2.072693912891490E-028
 -3.200000000000000E-002    3.283635227385433E-028
 -3.190000000000000E-002    4.753422965805799E-028
 -3.180000000000000E-002    6.364768972495525E-028
 -3.170000000000000E-002    7.881815718983204E-028
 -3.160000000000000E-002    8.913742221095450E-028
 -3.150000000000000E-002    8.884935126903512E-028
 -3.140000000000000E-002    7.022142964416965E-028
 -3.130000000000000E-002    2.372340750016475E-028
 -3.120000000000000E-002   -6.132299042620438E-028
 -3.110000000000000E-002   -1.954485265294440E-027
 -3.100000000000000E-002   -3.869360152505040E-027
 -3.090000000000000E-002   -6.388113477806498E-027
 -3.080000000000000E-002   -9.449290293706325E-027
 -3.070000000000000E-002   -1.285323698823133E-026
 -3.060000000000000E-002   -1.621230835432580E-026
 -3.050000000000000E-002   -1.890470585691302E-026
 -3.040000000000000E-002   -2.004216341904040E-026
 -3.030000000000000E-002   -1.846496757051307E-026
 -3.020000000000000E-002   -1.278053349574933E-026
 -3.010000000000000E-002   -1.463094659166926E-027
 -3.000000000000000E-002    1.696877881150928E-026
 -2.990000000000000E-002    4.368426570512761E-026
 -2.980000000000000E-002    7.917775280094220E-026
 -2.970000000000000E-002    1.228206830834862E-025
 -2.960000000000000E-002    1.723551807836262E-025
 -2.950000000000000E-002    2.233799555853549E-025
 -2.940000000000000E-002    2.689053215018514E-025
 -2.930000000000000E-002    2.990809380559475E-025
 -2.920000000000000E-002    3.012235397331255E-025
 -2.910000000000000E-002    2.602865304181048E-025
 -2.900000000000000E-002    1.599135492690385E-025
 -2.890000000000000E-002   -1.580382316265240E-026
 -2.880000000000000E-002   -2.797937384887113E-025
 -2.870000000000000E-002   -6.387091948735114E-025
 -2.860000000000000E-002   -1.089000620922239E-024
 -2.850000000000000E-002   -1.612635871908164E-024
 -2.840000000000000E-002   -2.172923432939762E-024
 -2.830000000000000E-002   -2.711077416964844E-024
 -2.820000000000000E-002   -3.144334004160358E-024
 -2.810000000000000E-002   -3.366553621810819E-024
 -2.800000000000000E-002   -3.252291268491677E-024
 -2.790000000000000E-002   -2.665237868916128E-024
 -2.780000000000000E-002   -1.471707469815234E-024
 -2.770000000000000E-002    4.405800559206206E-025
 -2.760000000000000E-002    3.138791808968713E-024
 -2.750000000000000E-002    6.617544838145968E-024
 -2.740000000000000E-002    1.076990677069980E-023
 -2.730000000000000E-002    1.536006111049338E-023
 -2.720000000000000E-002    2.000189443308719E-023
 -2.710000000000000E-002    2.414858346142996E-023
 -2.700000000000000E-002    2.709876483657004E-023
 -2.690000000000000E-002    2.802471198888391E-023
 -2.680000000000000E-002    2.602712006691830E-023
 -2.670000000000000E-002    2.021927256966488E-023
 -2.660000000000000E-002    9.840568881462475E-024
 -2.650000000000000E-002   -5.604450900163117E-024
 -2.640000000000000E-002   -2.619006771745351E-023
 -2.630000000000000E-002   -5.141002524445372E-023
 -2.620000000000000E-002   -8.003367940397834E-023
 -2.610000000000000E-002   -1.100010128835634E-022
 -2.600000000000000E-002   -1.383828157146679E-022
 -2.590000000000000E-002   -1.614329962001250E-022
 -2.580000000000000E-002   -1.747571820871531E-022
 -2.570000000000000E-002   -1.736151655805984E-022
 -2.560000000000000E-002   -1.533635821671092E-022
 -2.550000000000000E-002   -1.100296569608735E-022
 -2.540000000000000E-002   -4.098747436898998E-023
 -2.530000000000000E-002    5.431355438666808E-023
 -2.520000000000000E-002    1.736407587211743E-022
 -2.510000000000000E-002    3.113832664144614E-022
 -2.500000000000000E-002    4.581773111120168E-022
 -2.490000000000000E-002    6.008637297812728E-022
 -2.480000000000000E-002    7.228824951560711E-022
 -2.470000000000000E-002    8.051859452736871E-022
 -2.460000000000000E-002    8.277121923245506E-022
 -2.450000000000000E-002    7.714030476973792E-022
 -2.440000000000000E-002    6.206783925352937E-022
 -2.430000000000000E-002    3.661975155097373E-022
 -2.420000000000000E-002    7.652597477623399E-024
 -2.410000000000000E-002   -4.437353367445413E-022
 -2.400000000000000E-002   -9.634045883348810E-022
 -2.390000000000000E-002   -1.512736184162865E-021
 -2.380000000000000E-002   -2.039819502733719E-021
 -2.370000000000000E-002   -2.482012625187798E-021
 -2.360000000000000E-002   -2.770472207367866E-021
 -2.350000000000000E-002   -2.836629344898382E-021
 -2.340000000000000E-002   -2.620342023526301E-021
 -2.330000000000000E-002   -2.079172154826883E-021
 -2.320000000000000E-002   -1.197947408522337E-021
 -2.310000000000000E-002    2.491236820662434E-024
 -2.300000000000000E-002    1.458647317713911E-021
 -2.290000000000000E-002    3.061202548940810E-021
 -2.280000000000000E-002    4.656627038538688E-021
 -2.270000000000000E-002    6.054614626146857E-021
 -2.260000000000000E-002    7.041946143889293E-021
 -2.250000000000000E-002    7.402737517413978E-021
 -2.240000000000000E-002    6.944241323288168E-021
 -2.230000000000000E-002    5.526458760240276E-021
 -2.220000000000000E-002    3.092909984963258E-021
 -2.210000000000000E-002   -3.009103489734721E-022
 -2.200000000000000E-002   -4.465460420152327E-021
 -2.190000000000000E-002   -9.065785373062474E-021
 -2.180000000000000E-002   -1.362496080784197E-020
 -2.170000000000000E-002   -1.754567069557941E-020
 -2.160000000000000E-002   -2.015189319496121E-020
 -2.150000000000000E-002   -2.075074501494628E-020
 -2.140000000000000E-002   -1.871209760942307E-020
 -2.130000000000000E-002   -1.356092732616469E-020
 -2.120000000000000E-002   -5.074626722743475E-021
 -2.110000000000000E-002    6.624980799838082E-021
 -2.100000000000000E-002    2.099693410230592E-020
 -2.090000000000000E-002    3.703662873229928E-020
 -2.080000000000000E-002    5.327387069196461E-020
 -2.070000000000000E-002    6.782387699966684E-020
 -2.060000000000000E-002    7.849791357013826E-020
 -2.050000000000000E-002    8.297500374780340E-020
 -2.040000000000000E-002    7.902971571768974E-020
 -2.030000000000000E-002    6.480344523644917E-020
 -2.020000000000000E-002    3.909927696223853E-020
 -2.010000000000000E-002    1.673297620193814E-021
 -2.000000000000000E-002   -4.650998065192461E-020
 -1.990000000000000E-002   -1.030936799525521E-019
 -1.980000000000000E-002   -1.642513853101395E-019
 -1.970000000000000E-002   -2.247480469905282E-019
 -1.960000000000000E-002   -2.781622637103702E-019
 -1.950000000000000E-002   -3.172808103061927E-019
 -1.940000000000000E-002   -3.346609144145127E-019
 -1.930000000000000E-002   -3.233372016967021E-019
 -1.920000000000000E-002   -2.776307527472709E-019
 -1.910000000000000E-002   -1.939991151358041E-019
 -1.900000000000000E-002   -7.184977802908362E-020
 -1.890000000000000E-002    8.577202123142934E-020
 -1.880000000000000E-002    2.717149985232907E-019
 -1.870000000000000E-002    4.745631020035464E-019
 -1.860000000000000E-002    6.788638353937578E-019
 -1.850000000000000E-002    8.657971051210454E-019
 -1.840000000000000E-002    1.014306519421336E-018
 -1.830000000000000E-002    1.102673200996569E-018
 -1.820000000000000E-002    1.110465959685205E-018
 -1.810000000000000E-002    1.020752364840048E-018
 -1.800000000000000E-002    8.224072467344285E-019
 -1.790000000000000E-002    5.123147920734273E-019
 -1.780000000000000E-002    9.722939355842034E-020
 -1.770000000000000E-002   -4.049513667637187E-019
 -1.760000000000000E-002   -9.647422083402417E-019
 -1.750000000000000E-002   -1.541660258501308E-018
 -1.740000000000000E-002   -2.085999030319452E-018
 -1.730000000000000E-002   -2.541848378201265E-018
 -1.720000000000000E-002   -2.851313700174173E-018
 -1.710000000000000E-002   -2.959759619870156E-018
 -1.700000000000000E-002   -2.821764525935489E-018
 -1.690000000000000E-002   -2.407336719767073E-018
 -1.680000000000000E-002   -1.707820187764460E-018
 -1.670000000000000E-002   -7.408287095209128E-019
 -1.660000000000000E-002    4.464932646140374E-019
 -1.650000000000000E-002    1.776567378719437E-018
 -1.640000000000000E-002    3.143416667899265E-018
 -1.630000000000000E-002    4.418045692386044E-018
 -1.620000000000000E-002    5.457301068147871E-018
 -1.610000000000000E-002    6.116011399524002E-018
 -1.600000000000000E-002    6.261809845438741E-018
 -1.590000000000000E-002    5.791621551574491E-018
 -1.580000000000000E-002    4.648397138992088E-018
 -1.570000000000000E-002    2.836330701614204E-018
 -1.560000000000000E-002    4.325846967654344E-019
 -1.550000000000000E-002   -2.406508100637407E-018
 -1.540000000000000E-002   -5.446621355329874E-018
 -1.530000000000000E-002   -8.385439642575614E-018
 -1.520000000000000E-002   -1.087225895468000E-017
 -1.510000000000000E-002   -1.253704557241887E-017
 -1.500000000000000E-002   -1.302772428439365E-017
 -1.490000000000000E-002   -1.205326782884162E-017
 -1.480000000000000E-002   -9.428971039983763E-018
 -1.470000000000000E-002   -5.119290443657192E-018
 -1.460000000000000E-002    7.271039444132844E-019
 -1.450000000000000E-002    7.755656784567238E-018
 -1.440000000000000E-002    1.540289041822107E-017
 -1.430000000000000E-002    2.291624040612079E-017
 -1.420000000000000E-002    2.939929327337839E-017
 -1.410000000000000E-002    3.388254788283654E-017
 -1.400000000000000E-002    3.541701885609059E-017
 -1.390000000000000E-002    3.318473295196972E-017
 -1.380000000000000E-002    2.661717354633248E-017
 -1.370000000000000E-002    1.550987169700050E-017
 -1.360000000000000E-002    1.195440205745797E-019
 -1.350000000000000E-002   -1.877066128728450E-017
 -1.340000000000000E-002   -3.983142356584266E-017
 -1.330000000000000E-002   -6.122416094127771E-017
 -1.320000000000000E-002   -8.070152896646227E-017
 -1.310000000000000E-002   -9.577262755373424E-017
 -1.300000000000000E-002   -1.039268444250238E-016
 -1.290000000000000E-002   -1.029027275623320E-016
 -1.280000000000000E-002   -9.098050536178878E-017
 -1.270000000000000E-002   -6.727029919811834E-017
 -1.260000000000000E-002   -3.196347311925734E-017
 -1.250000000000000E-002    1.348739266644379E-017
 -1.240000000000000E-002    6.629251327808527E-017
 -1.230000000000000E-002    1.223800378020916E-016
 -1.220000000000000E-002    1.765993230271621E-016
 -1.210000000000000E-002    2.230763179772906E-016
 -1.200000000000000E-002    2.557086430248068E-016
 -1.190000000000000E-002    2.687703584991766E-016
 -1.180000000000000E-002    2.575793358151294E-016
 -1.170000000000000E-002    2.191653627277601E-016
 -1.160000000000000E-002    1.528664413897930E-016
 -1.150000000000000E-002    6.077708377761042E-017
 -1.140000000000000E-002   -5.202397068850102E-017
 -1.130000000000000E-002   -1.775266693145235E-016
 -1.120000000000000E-002   -3.051618958268107E-016
 -1.110000000000000E-002   -4.225030567982005E-016
 -1.100000000000000E-002   -5.162722782789642E-016
 -1.090000000000000E-002   -5.735896820628803E-016
 -1.080000000000000E-002   -5.833675959927045E-016
 -1.070000000000000E-002   -5.377219200730465E-016
 -1.060000000000000E-002   -4.332513906399008E-016
 -1.050000000000000E-002   -2.720276992226242E-016
 -1.040000000000000E-002   -6.214962595583477E-017
 -1.030000000000000E-002    1.822604728315805E-016
 -1.020000000000000E-002    4.416946068762874E-016
 -1.010000000000000E-002    6.925496555931396E-016
 -1.000000000000000E-002    9.090197212529722E-016
 -9.899999999999999E-003    1.065466696184266E-015
 -9.800000000000000E-003    1.139075328153696E-015
 -9.699999999999999E-003    1.112544440972276E-015
 -9.599999999999999E-003    9.765267811140506E-016
 -9.500000000000000E-003    7.315226404478164E-016
 -9.399999999999999E-003    3.889561205595636E-016
 -9.299999999999999E-003   -2.878158036617144E-017
 -9.200000000000000E-003   -4.894477855805474E-016
 -9.099999999999999E-003   -9.532339868222742E-016
 -8.999999999999999E-003   -1.376103438594199E-015
 -8.900000000000000E-003   -1.713928371516236E-015
 -8.799999999999999E-003   -1.927056604550573E-015
 -8.699999999999999E-003   -1.984842629567284E-015
 -8.600000000000000E-003   -1.869631363389034E-015
 -8.499999999999999E-003   -1.579689196227379E-015
 -8.399999999999999E-003   -1.130639312030417E-015
 -8.300000000000000E-003   -5.550881557116413E-016
 -8.199999999999999E-003    9.969327659333426E-017
 -8.100000000000000E-003    7.759516879575028E-016
 -8.000000000000000E-003    1.411182842685287E-015
 -7.899999999999999E-003    1.944874253352658E-015
 -7.800000000000000E-003    2.325538506817270E-015
 -7.699999999999999E-003    2.517196581715798E-015
 -7.599999999999999E-003    2.504446833774942E-015
 -7.499999999999999E-003    2.295330523153541E-015
 -7.399999999999999E-003    1.921395123120087E-015
 -7.299999999999999E-003    1.434643584821012E-015
 -7.199999999999999E-003    9.014270261072523E-016
 -7.100000000000000E-003    3.937426583201489E-016
 -6.999999999999999E-003   -2.118901543810348E-017
 -6.899999999999999E-003   -2.918541118718905E-016
 -6.800000000000000E-003   -3.924214635889941E-016
 -6.699999999999999E-003   -3.302259278902172E-016
 -6.599999999999999E-003   -1.493236518556128E-016
 -6.499999999999999E-003    7.100685702977757E-017
 -6.399999999999999E-003    2.234358750226027E-016
 -6.299999999999999E-003    1.853795425989137E-016
 -6.199999999999999E-003   -1.633864047987785E-016
 -6.100000000000000E-003   -9.198938752363754E-016
 -5.999999999999999E-003   -2.136230324680289E-015
 -5.899999999999999E-003   -3.799688580720688E-015
 -5.800000000000000E-003   -5.817894574774139E-015
 -5.699999999999999E-003   -8.011880366188604E-015
 -5.599999999999999E-003   -1.011958089914175E-014
 -5.499999999999999E-003   -1.181133338549501E-014
 -5.399999999999999E-003   -1.271773548441806E-014
 -5.299999999999999E-003   -1.246870817203034E-014
 -5.199999999999999E-003   -1.074103744794959E-014
 -5.099999999999999E-003   -7.310101950136862E-015
 -4.999999999999999E-003   -2.100268991002596E-015
 -4.899999999999999E-003    4.772416788990361E-015
 -4.799999999999999E-003    1.297177791254961E-014
 -4.699999999999999E-003    2.193327415141631E-014
 -4.599999999999999E-003    3.088063224755722E-014
 -4.499999999999999E-003    3.886988062861939E-014
 -4.399999999999999E-003    4.486057245659061E-014
 -4.299999999999999E-003    4.781089010485606E-014
 -4.199999999999999E-003    4.679003893593562E-014
 -4.099999999999999E-003    4.109839070044049E-014
 -3.999999999999999E-003    3.038344439088438E-014
 -3.899999999999999E-003    1.473829019345603E-014
 -3.799999999999999E-003   -5.230817559370819E-015
 -3.699999999999999E-003   -2.837986328987425E-014
 -3.599999999999999E-003   -5.305462047995519E-014
 -3.499999999999999E-003   -7.717527901987701E-014
 -3.399999999999999E-003   -9.837762402528600E-014
 -3.299999999999999E-003   -1.142043202050696E-013
 -3.199999999999999E-003   -1.223334010952581E-013
 -3.099999999999999E-003   -1.208257910979531E-013
 -2.999999999999999E-003   -1.083689302230027E-013
 -2.899999999999999E-003   -8.449135374440275E-014
 -2.799999999999999E-003   -4.972265629378219E-014
 -2.699999999999999E-003   -5.675869661336436E-015
 -2.599999999999999E-003    4.496562841900026E-014
 -2.499999999999999E-003    9.856685884006984E-014
 -2.399999999999999E-003    1.507663285746765E-013
 -2.299999999999999E-003    1.967973764014720E-013
 -2.199999999999999E-003    2.318849136659251E-013
 -2.099999999999999E-003    2.516867979947472E-013
 -1.999999999999999E-003    2.527414304781412E-013
 -1.899999999999999E-003    2.328785460538717E-013
 -1.799999999999999E-003    1.915494362831169E-013
 -1.699999999999999E-003    1.300370090881769E-013
 -1.599999999999999E-003    5.151374520524136E-014
 -1.499999999999999E-003   -3.907167119390596E-014
 -1.399999999999999E-003   -1.352832452692595E-013
 -1.299999999999999E-003   -2.296491377214042E-013
 -1.199999999999999E-003   -3.142456308208333E-013
 -1.099999999999999E-003   -3.813675686162899E-013
 -9.999999999999989E-004   -4.242277007462959E-013
 -8.999999999999990E-004   -4.376195101021820E-013
 -7.999999999999990E-004   -4.184773925126442E-013
 -6.999999999999989E-004   -3.662733311380706E-013
 -5.999999999999990E-004   -2.832018737448869E-013
 -4.999999999999989E-004   -1.741230970778386E-013
 -3.999999999999989E-004   -4.625575106133692E-014
 -2.999999999999989E-004    9.136233733270560E-014
 -1.999999999999989E-004    2.286047889578518E-013
 -9.999999999999892E-005    3.551147001031592E-013
  1.084202172485504E-018    4.612100708920148E-013
  1.000000000000011E-004    5.387476332769608E-013
  2.000000000000011E-004    5.818564301904373E-013
  3.000000000000011E-004    5.874617171478289E-013
  4.000000000000011E-004    5.555395639511293E-013
  5.000000000000011E-004    4.890679260051076E-013
  6.000000000000011E-004    3.936730830760937E-013
  7.000000000000011E-004    2.770038384148641E-013
  8.000000000000011E-004    1.478976992475692E-013
  9.000000000000012E-004    1.543095471748586E-014
  1.000000000000001E-003   -1.120384030171212E-013
  1.100000000000001E-003   -2.277197259835013E-013
  1.200000000000001E-003   -3.270224093583299E-013
  1.300000000000001E-003   -4.078852056828469E-013
  1.400000000000001E-003   -4.707478197749680E-013
  1.500000000000001E-003   -5.181523310170048E-013
  1.600000000000001E-003   -5.540093644363688E-013
  1.700000000000001E-003   -5.826109021831521E-013
  1.800000000000001E-003   -6.075117974521405E-013
  1.900000000000001E-003   -6.304326145812707E-013
  2.000000000000001E-003   -6.503484718983496E-013
  2.100000000000001E-003   -6.629236735733736E-013
  2.200000000000001E-003   -6.604241777134239E-013
  2.300000000000001E-003   -6.321937573634856E-013
  2.400000000000001E-003   -5.657164147514660E-013
  2.500000000000001E-003   -4.482156171212360E-013
  2.600000000000001E-003   -2.686626789844528E-013
  2.700000000000001E-003   -1.999642072062857E-014
  2.800000000000001E-003    2.986979767386604E-013
  2.900000000000001E-003    6.803395360294296E-013
  3.000000000000001E-003    1.108618129257172E-012
  3.100000000000001E-003    1.557638407048022E-012
  3.200000000000001E-003    1.992633318636811E-012
  3.300000000000001E-003    2.371847484752553E-012
  3.400000000000001E-003    2.649565190567425E-012
  3.500000000000001E-003    2.780133473094478E-012
  3.600000000000001E-003    2.722687022893035E-012
  3.700000000000001E-003    2.446173721994925E-012
  3.800000000000001E-003    1.934183425377160E-012
  3.900000000000001E-003    1.189038037739018E-012
  4.000000000000001E-003    2.346118633868374E-013
  4.100000000000001E-003   -8.825929910264163E-013
  4.200000000000001E-003   -2.094459079292031E-012
  4.300000000000001E-003   -3.314533798741989E-012
  4.400000000000001E-003   -4.443536660959987E-012
  4.500000000000001E-003   -5.376825155208557E-012
  4.600000000000002E-003   -6.013322436513818E-012
  4.700000000000001E-003   -6.265199882020676E-012
  4.800000000000001E-003   -6.067456527920863E-012
  4.900000000000002E-003   -5.386455991323956E-012
  5.000000000000001E-003   -4.226474769966850E-012
  5.100000000000001E-003   -2.633425230697655E-012
  5.200000000000001E-003   -6.950968904517413E-013
  5.300000000000002E-003    1.462456068843820E-012
  5.400000000000001E-003    3.682426213516227E-012
  5.500000000000001E-003    5.788320221326883E-012
  5.600000000000002E-003    7.597878444657292E-012
  5.700000000000001E-003    8.938798614594174E-012
  5.800000000000001E-003    9.664945747793508E-012
  5.900000000000002E-003    9.671577330012599E-012
  6.000000000000001E-003    8.908088508679525E-012
  6.100000000000001E-003    7.386875018030547E-012
  6.200000000000002E-003    5.187195076091721E-012
  6.300000000000002E-003    2.453270027062817E-012
  6.400000000000001E-003   -6.136257606815249E-013
  6.500000000000001E-003   -3.768811798012536E-012
  6.600000000000002E-003   -6.742737109427432E-012
  6.700000000000001E-003   -9.263054553857009E-012
  6.800000000000001E-003   -1.107846593120046E-011
  6.900000000000002E-003   -1.198227664363253E-011
  7.000000000000001E-003   -1.183353161634425E-011
  7.100000000000001E-003   -1.057367590138621E-011
  7.200000000000002E-003   -8.236989242058947E-012
  7.300000000000002E-003   -4.953538362964519E-012
  7.400000000000001E-003   -9.439884660444603E-013
  7.500000000000001E-003    3.493649159980675E-012
  7.600000000000002E-003    8.004528110144491E-012
  7.700000000000001E-003    1.220325107376517E-011
  7.800000000000001E-003    1.570383233851627E-011
  7.900000000000001E-003    1.815089740771182E-011
  8.000000000000002E-003    1.924943169126922E-011
  8.100000000000001E-003    1.879052647361726E-011
  8.200000000000001E-003    1.667085886981737E-011
  8.300000000000002E-003    1.290416042584101E-011
  8.400000000000001E-003    7.623693945546676E-012
  8.500000000000002E-003    1.075552985747405E-012
  8.600000000000002E-003   -6.396566815068989E-012
  8.700000000000001E-003   -1.437364287744789E-011
  8.800000000000002E-003   -2.238858772636733E-011
  8.900000000000002E-003   -2.995595363550125E-011
  9.000000000000001E-003   -3.660143507138310E-011
  9.100000000000002E-003   -4.188861203528329E-011
  9.200000000000002E-003   -4.544082968129436E-011
  9.300000000000001E-003   -4.695671316702388E-011
  9.400000000000002E-003   -4.621866779629835E-011
  9.500000000000001E-003   -4.309461262566907E-011
  9.600000000000001E-003   -3.753401169490577E-011
  9.700000000000002E-003   -2.956008036633622E-011
  9.800000000000001E-003   -1.926042316212796E-011
  9.900000000000001E-003   -6.778722095940381E-012
  1.000000000000000E-002    7.690267472187872E-012
  1.010000000000000E-002    2.390051831985809E-011
  1.020000000000000E-002    4.154831411994749E-011
  1.030000000000000E-002    6.025970378866773E-011
  1.040000000000000E-002    7.957302762519214E-011
  1.050000000000000E-002    9.891904215267895E-011
  1.060000000000000E-002    1.176019870180443E-010
  1.070000000000000E-002    1.347858634126738E-010
  1.080000000000000E-002    1.494903367804343E-010
  1.090000000000000E-002    1.606005720994701E-010
  1.100000000000000E-002    1.668943492558014E-010
  1.110000000000000E-002    1.670887980524327E-010
  1.120000000000000E-002    1.599070274182608E-010
  1.130000000000000E-002    1.441631395550850E-010
  1.140000000000000E-002    1.188617648255910E-010
  1.150000000000000E-002    8.330624779461917E-011
  1.160000000000000E-002    3.720788496198885E-011
  1.170000000000000E-002   -1.921277914983291E-011
  1.180000000000000E-002   -8.514201009113939E-011
  1.190000000000000E-002   -1.591154736262261E-010
  1.200000000000000E-002   -2.389952225793499E-010
  1.210000000000000E-002   -3.219874990146144E-010
  1.220000000000000E-002   -4.047041466676913E-010
  1.230000000000000E-002   -4.832684725901670E-010
  1.240000000000000E-002   -5.534614895528805E-010
  1.250000000000000E-002   -6.109023787441132E-010
  1.260000000000000E-002   -6.512535007073792E-010
  1.270000000000000E-002   -6.704372990806680E-010
  1.280000000000000E-002   -6.648526829897804E-010
  1.290000000000000E-002   -6.315759963642553E-010
  1.300000000000000E-002   -5.685347716697709E-010
  1.310000000000000E-002   -4.746429525277301E-010
  1.320000000000000E-002   -3.498900750566213E-010
  1.330000000000000E-002   -1.953801397347978E-010
  1.340000000000000E-002   -1.332043251689609E-011
  1.350000000000000E-002    1.930350515692196E-010
  1.360000000000000E-002    4.194801726872692E-010
  1.370000000000000E-002    6.609781366394962E-010
  1.380000000000000E-002    9.117974909098631E-010
  1.390000000000000E-002    1.165649470141615E-009
  1.400000000000000E-002    1.415815748423696E-009
  1.410000000000000E-002    1.655256076490845E-009
  1.420000000000000E-002    1.876692803372017E-009
  1.430000000000000E-002    2.072669075345353E-009
  1.440000000000000E-002    2.235586665322559E-009
  1.450000000000000E-002    2.357732702802951E-009
  1.460000000000000E-002    2.431307667597023E-009
  1.470000000000000E-002    2.448472864825953E-009
  1.480000000000000E-002    2.401433595914647E-009
  1.490000000000000E-002    2.282577200337089E-009
  1.500000000000000E-002    2.084679049838857E-009
  1.510000000000000E-002    1.801188125773976E-009
  1.520000000000000E-002    1.426594487640281E-009
  1.530000000000000E-002    9.568778836023306E-010
  1.540000000000000E-002    3.900208672249034E-010
  1.550000000000000E-002   -2.734290721325959E-010
  1.560000000000000E-002   -1.029778328839217E-009
  1.570000000000000E-002   -1.871622746189426E-009
  1.580000000000000E-002   -2.787333360578841E-009
  1.590000000000000E-002   -3.760635783397104E-009
  1.600000000000000E-002   -4.770321318397080E-009
  1.610000000000000E-002   -5.790121934972399E-009
  1.620000000000000E-002   -6.788781598937761E-009
  1.630000000000000E-002   -7.730342598441634E-009
  1.640000000000000E-002   -8.574658990870659E-009
  1.650000000000000E-002   -9.278141815943881E-009
  1.660000000000000E-002   -9.794724058348656E-009
  1.670000000000000E-002   -1.007703363208673E-008
  1.680000000000000E-002   -1.007775269688035E-008
  1.690000000000000E-002   -9.751136346421799E-009
  1.700000000000000E-002   -9.054665303123889E-009
  1.710000000000000E-002   -7.950797372609500E-009
  1.720000000000000E-002   -6.408813539979798E-009
  1.730000000000000E-002   -4.406714332693918E-009
  1.740000000000000E-002   -1.933172953456198E-009
  1.750000000000000E-002    1.010476472105191E-009
  1.760000000000000E-002    4.408208404327319E-009
  1.770000000000000E-002    8.227248821973399E-009
  1.780000000000000E-002    1.241597819567115E-008
  1.790000000000000E-002    1.690180019325700E-008
  1.800000000000000E-002    2.158900635112051E-008
  1.810000000000000E-002    2.635661423363424E-008
  1.820000000000000E-002    3.105623455605914E-008
  1.830000000000000E-002    3.550997749152262E-008
  1.840000000000000E-002    3.950847528766359E-008
  1.850000000000000E-002    4.280901947736263E-008
  1.860000000000000E-002    4.513390488990683E-008
  1.870000000000000E-002    4.616907267557904E-008