 -4.000000000000000E-002    0.000000000000000E+000
 -3.990000000000000E-002    0.000000000000000E+000
 -3.980000000000000E-002    0.000000000000000E+000
 -3.970000000000000E-002    0.000000000000000E+000
 -3.960000000000000E-002    0.000000000000000E+000
 -3.950000000000000E-002    0.000000000000000E+000
 -3.940000000000000E-002    0.000000000000000E+000
 -3.930000000000000E-002    0.000000000000000E+000
 -3.920000000000000E-002    0.000000000000000E+000
 -3.910000000000000E-002    0.000000000000000E+000
 -3.900000000000000E-002    0.000000000000000E+000
 -3.890000000000000E-002    0.000000000000000E+000
 -3.880000000000000E-002    0.000000000000000E+000
 -3.870000000000000E-002    0.000000000000000E+000
 -3.860000000000000E-002    0.000000000000000E+000
 -3.850000000000000E-002    0.000000000000000E+000
 -3.840000000000000E-002    0.000000000000000E+000
 -3.830000000000000E-002    0.000000000000000E+000
 -3.820000000000000E-002    0.000000000000000E+000
 -3.810000000000000E-002    0.000000000000000E+000
 -3.800000000000000E-002    0.000000000000000E+000
 -3.790000000000000E-002    0.000000000000000E+000
 -3.780000000000000E-002    0.000000000000000E+000
 -3.770000000000000E-002    0.000000000000000E+000
 -3.760000000000000E-002    0.000000000000000E+000
 -3.750000000000000E-002    0.000000000000000E+000
 -3.740000000000000E-002    0.000000000000000E+000
 -3.730000000000000E-002    0.000000000000000E+000
 -3.720000000000000E-002    0.000000000000000E+000
 -3.710000000000000E-002    0.000000000000000E+000
 -3.700000000000000E-002    0.000000000000000E+000
 -3.690000000000000E-002    0.000000000000000E+000
 -3.680000000000000E-002    0.000000000000000E+000
 -3.670000000000000E-002    0.000000000000000E+000
 -3.660000000000000E-002    0.000000000000000E+000
 -3.650000000000000E-002    0.000000000000000E+000
 -3.640000000000000E-002    0.000000000000000E+000
 -3.630000000000000E-002    0.000000000000000E+000
 -3.620000000000000E-002    0.000000000000000E+000
 -3.610000000000000E-002    0.000000000000000E+000
 -3.600000000000000E-002    0.000000000000000E+000
 -3.590000000000000E-002    0.000000000000000E+000
 -3.580000000000000E-002    0.000000000000000E+000
 -3.570000000000000E-002    0.000000000000000E+000
 -3.560000000000000E-002    0.000000000000000E+000
 -3.550000000000000E-002    0.000000000000000E+000
 -3.540000000000000E-002    0.000000000000000E+000
 -3.530000000000000E-002    0.000000000000000E+000
 -3.520000000000000E-002    0.000000000000000E+000
 -3.510000000000000E-002    0.000000000000000E+000
 -3.500000000000000E-002    0.000000000000000E+000
 -3.490000000000000E-002    0.000000000000000E+000
 -3.480000000000000E-002    0.000000000000000E+000
 -3.470000000000000E-002    0.000000000000000E+000
 -3.460000000000000E-002    0.000000000000000E+000
 -3.450000000000000E-002    0.000000000000000E+000
 -3.440000000000000E-002    0.000000000000000E+000
 -3.430000000000000E-002    0.000000000000000E+000
 -3.420000000000000E-002    0.000000000000000E+000
 -3.410000000000000E-002    0.000000000000000E+000
 -3.400000000000000E-002    0.000000000000000E+000
 -3.390000000000000E-002    0.000000000000000E+000
 -3.380000000000000E-002    0.000000000000000E+000
 -3.370000000000000E-002    0.000000000000000E+000
 -3.360000000000000E-002    0.000000000000000E+000
 -3.350000000000000E-002    0.000000000000000E+000
 -3.340000000000000E-002    0.000000000000000E+000
 -3.330000000000000E-002    0.000000000000000E+000
 -3.320000000000000E-002    0.000000000000000E+000
 -3.310000000000000E-002    0.000000000000000E+000
 -3.300000000000000E-002    0.000000000000000E+000
 -3.290000000000000E-002    0.000000000000000E+000
 -3.280000000000000E-002    0.000000000000000E+000
 -3.270000000000000E-002    0.000000000000000E+000
 -3.260000000000000E-002    0.000000000000000E+000
 -3.250000000000000E-002    0.000000000000000E+000
 -3.240000000000000E-002    0.000000000000000E+000
 -3.230000000000000E-002    0.000000000000000E+000
 -3.220000000000000E-002    0.000000000000000E+000
 -3.210000000000000E-002    0.000000000000000E+000
 -3.200000000000000E-002    0.000000000000000E+000
 -3.190000000000000E-002    0.000000000000000E+000
 -3.180000000000000E-002    0.000000000000000E+000
 -3.170000000000000E-002    0.000000000000000E+000
 -3.160000000000000E-002    0.000000000000000E+000
 -3.150000000000000E-002    0.000000000000000E+000
 -3.140000000000000E-002    0.000000000000000E+000
 -3.130000000000000E-002    0.000000000000000E+000
 -3.120000000000000E-002    0.000000000000000E+000
 -3.110000000000000E-002    0.000000000000000E+000
 -3.100000000000000E-002    0.000000000000000E+000
 -3.090000000000000E-002    0.000000000000000E+000
 -3.080000000000000E-002    0.000000000000000E+000
 -3.070000000000000E-002    0.000000000000000E+000
 -3.060000000000000E-002    0.000000000000000E+000
 -3.050000000000000E-002    0.000000000000000E+000
 -3.040000000000000E-002    0.000000000000000E+000
 -3.030000000000000E-002    0.000000000000000E+000
 -3.020000000000000E-002    0.000000000000000E+000
 -3.010000000000000E-002    0.000000000000000E+000
 -3.000000000000000E-002    0.000000000000000E+000
 -2.990000000000000E-002    0.000000000000000E+000
 -2.980000000000000E-002    0.000000000000000E+000
 -2.970000000000000E-002    0.000000000000000E+000
 -2.960000000000000E-002    0.000000000000000E+000
 -2.950000000000000E-002    0.000000000000000E+000
 -2.940000000000000E-002    0.000000000000000E+000
 -2.930000000000000E-002    0.000000000000000E+000
 -2.920000000000000E-002    0.000000000000000E+000
 -2.910000000000000E-002    0.000000000000000E+000
 -2.900000000000000E-002    0.000000000000000E+000
 -2.890000000000000E-002    0.000000000000000E+000
 -2.880000000000000E-002    0.000000000000000E+000
 -2.870000000000000E-002    0.000000000000000E+000
 -2.860000000000000E-002    0.000000000000000E+000
 -2.850000000000000E-002    0.000000000000000E+000
 -2.840000000000000E-002    0.000000000000000E+000
 -2.830000000000000E-002    0.000000000000000E+000
 -2.820000000000000E-002    0.000000000000000E+000
 -2.810000000000000E-002    0.000000000000000E+000
 -2.800000000000000E-002    0.000000000000000E+000
 -2.790000000000000E-002    0.000000000000000E+000
 -2.780000000000000E-002    0.000000000000000E+000
 -2.770000000000000E-002    1.549744813208636E-047
 -2.760000000000000E-002    1.021422726548278E-047
 -2.750000000000000E-002   -1.639403754576356E-047
 -2.740000000000000E-002   -6.378297135569984E-047
 -2.730000000000000E-002   -1.747041540233009E-046
 -2.720000000000000E-002   -2.199482663727153E-046
 -2.710000000000000E-002   -2.806898268542160E-046
 -2.700000000000000E-002   -2.278210082616411E-046
 -2.690000000000000E-002   -1.467199982259605E-046
 -2.680000000000000E-002    1.320106562922327E-046
 -2.670000000000000E-002    1.106707609996645E-045
 -2.660000000000000E-002    2.349696343482636E-045
 -2.650000000000000E-002    4.171678778792850E-045
 -2.640000000000000E-002    5.545253847890367E-045
 -2.630000000000000E-002    7.136627869764984E-045
 -2.620000000000000E-002    8.197227588944102E-045
 -2.610000000000000E-002    6.924457482355792E-045
 -2.600000000000000E-002    1.917397472452785E-045
 -2.590000000000000E-002   -7.014036159114182E-045
 -2.580000000000000E-002   -2.180867213718453E-044
 -2.570000000000000E-002   -4.411831610772044E-044
 -2.560000000000000E-002   -7.193362362617583E-044
 -2.550000000000000E-002   -1.026859417608347E-043
 -2.540000000000000E-002   -1.312365402939939E-043
 -2.530000000000000E-002   -1.478060791884424E-043
 -2.520000000000000E-002   -1.380424459492589E-043
 -2.510000000000000E-002   -8.580979933263474E-044
 -2.500000000000000E-002    2.824077342346247E-044
 -2.490000000000000E-002    2.175710942858705E-043
 -2.480000000000000E-002    4.898437836726790E-043
 -2.470000000000000E-002    8.348498364367043E-043
 -2.460000000000000E-002    1.216976320492492E-042
 -2.450000000000000E-002    1.570379855398737E-042
 -2.440000000000000E-002    1.793610219112769E-042
 -2.430000000000000E-002    1.756332279848960E-042
 -2.420000000000000E-002    1.311412364788531E-042
 -2.410000000000000E-002    3.262789354690086E-043
 -2.400000000000000E-002   -1.282070148594319E-042
 -2.390000000000000E-002   -3.492137700626268E-042
 -2.380000000000000E-002   -6.129448581768683E-042
 -2.370000000000000E-002   -8.832960962288110E-042
 -2.360000000000000E-002   -1.105018092473814E-041
 -2.350000000000000E-002   -1.208963136926555E-041
 -2.340000000000000E-002   -1.124885582251360E-041
 -2.330000000000000E-002   -8.017429378129966E-042
 -2.320000000000000E-002   -2.340762679811993E-042
 -2.310000000000000E-002    5.094906242305780E-042
 -2.300000000000000E-002    1.265617648260568E-041
 -2.290000000000000E-002    1.774211556326458E-041
 -2.280000000000000E-002    1.710416891964166E-041
 -2.270000000000000E-002    7.637546888190948E-042
 -2.260000000000000E-002   -1.228075345245735E-041
 -2.250000000000000E-002   -4.095657788566284E-041
 -2.240000000000000E-002   -7.129026626757755E-041
 -2.230000000000000E-002   -8.894168171946842E-041
 -2.220000000000000E-002   -7.155331212569741E-041
 -2.210000000000000E-002    9.965143404857985E-042
 -2.200000000000000E-002    1.869353205187820E-040
 -2.190000000000000E-002    4.842856970759962E-040
 -2.180000000000000E-002    9.074181886448253E-040
 -2.170000000000000E-002    1.425297797257960E-039
 -2.160000000000000E-002    1.952066465415678E-039
 -2.150000000000000E-002    2.331455677080537E-039
 -2.140000000000000E-002    2.330315491845638E-039
 -2.130000000000000E-002    1.649204210612107E-039
 -2.120000000000000E-002   -4.157861700218498E-041
 -2.110000000000000E-002   -3.033657935966361E-039
 -2.100000000000000E-002   -7.477388975660497E-039
 -2.090000000000000E-002   -1.324886209484628E-038
 -2.080000000000000E-002   -1.980300375640319E-038
 -2.070000000000000E-002   -2.604179792556755E-038
 -2.060000000000000E-002   -3.023998329070354E-038
 -2.050000000000000E-002   -3.008084530157165E-038
 -2.040000000000000E-002   -2.285744670313151E-038
 -2.030000000000000E-002   -5.885129437373754E-039
 -2.020000000000000E-002    2.285510459224918E-038
 -2.010000000000000E-002    6.386804117959063E-038
 -2.000000000000000E-002    1.151796973686534E-037
 -1.990000000000000E-002    1.714213252078679E-037
 -1.980000000000000E-002    2.232017072861376E-037
 -1.970000000000000E-002    2.570638065330988E-037
 -1.960000000000000E-002    2.563361401819597E-037
 -1.950000000000000E-002    2.031369099738198E-037
 -1.940000000000000E-002    8.164919979672171E-038
 -1.930000000000000E-002   -1.174502035919143E-037
 -1.920000000000000E-002   -3.918488652861278E-037
 -1.910000000000000E-002   -7.225577826147633E-037
 -1.900000000000000E-002   -1.070146316078234E-036
 -1.890000000000000E-002   -1.373682078542713E-036
 -1.880000000000000E-002   -1.553843793707132E-036
 -1.870000000000000E-002   -1.521390704419460E-036
 -1.860000000000000E-002   -1.191482274540969E-036
 -1.850000000000000E-002   -5.032316456587123E-037
 -1.840000000000000E-002    5.575857586715033E-037
 -1.830000000000000E-002    1.936361101843290E-036
 -1.820000000000000E-002    3.493169804519917E-036
 -1.810000000000000E-002    4.998008305716430E-036
 -1.800000000000000E-002    6.143632929276913E-036
 -1.790000000000000E-002    6.580278695503956E-036
 -1.780000000000000E-002    5.973276703338854E-036
 -1.770000000000000E-002    4.079694694972974E-036
 -1.760000000000000E-002    8.341538251772474E-037
 -1.750000000000000E-002   -3.572157316095677E-036
 -1.740000000000000E-002   -8.640064546585827E-036
 -1.730000000000000E-002   -1.356119593065233E-035
 -1.720000000000000E-002   -1.728668120545862E-035
 -1.710000000000000E-002   -1.867662534587715E-035
 -1.700000000000000E-002   -1.672611006221093E-035
 -1.690000000000000E-002   -1.084325936892547E-035
 -1.680000000000000E-002   -1.132525995855191E-036
 -1.670000000000000E-002    1.138359881914754E-035
 -1.660000000000000E-002    2.468258445724776E-035
 -1.650000000000000E-002    3.587408441900090E-035
 -1.640000000000000E-002    4.159693965787367E-035
 -1.630000000000000E-002    3.868460082464938E-035
 -1.620000000000000E-002    2.503536291584879E-035
 -1.610000000000000E-002    5.444844259399953E-037
 -1.600000000000000E-002   -3.212032093693506E-035
 -1.590000000000000E-002   -6.716945207715424E-035
 -1.580000000000000E-002   -9.603931728545887E-035
 -1.570000000000000E-002   -1.086398083870673E-034
 -1.560000000000000E-002   -9.555008255722687E-035
 -1.550000000000000E-002   -5.097660947717437E-035
 -1.540000000000000E-002    2.400443153698268E-035
 -1.530000000000000E-002    1.186951555687752E-034
 -1.520000000000000E-002    2.115149174953341E-034
 -1.510000000000000E-002    2.712954973137441E-034
 -1.500000000000000E-002    2.620061866145160E-034
 -1.490000000000000E-002    1.512704826039981E-034
 -1.480000000000000E-002   -7.781951339347723E-035
 -1.470000000000000E-002   -4.132143804180750E-034
 -1.460000000000000E-002   -8.016179782401835E-034
 -1.450000000000000E-002   -1.141373660884251E-033
 -1.440000000000000E-002   -1.285107487048162E-033
 -1.430000000000000E-002   -1.056435425731877E-033
 -1.420000000000000E-002   -2.835436290673436E-034
 -1.410000000000000E-002    1.150471242689920E-033
 -1.400000000000000E-002    3.244905473611401E-033
 -1.390000000000000E-002    5.816035816792635E-033
 -1.380000000000000E-002    8.444004809478946E-033
 -1.370000000000000E-002    1.045128180639046E-032
 -1.360000000000000E-002    1.093364457001614E-032
 -1.350000000000000E-002    8.862088330645081E-033
 -1.340000000000000E-002    3.266106350372305E-033
 -1.330000000000000E-002   -6.505267938794251E-033
 -1.320000000000000E-002   -2.046778739260677E-032
 -1.310000000000000E-002   -3.767787955860337E-032
 -1.300000000000000E-002   -5.596912038373397E-032
 -1.290000000000000E-002   -7.183588043967869E-032
 -1.280000000000000E-002   -8.055681300643266E-032
 -1.270000000000000E-002   -7.663926553194304E-032
 -1.260000000000000E-002   -5.463175071359705E-032
 -1.250000000000000E-002   -1.029319159797919E-032
 -1.240000000000000E-002    5.797272655549462E-032
 -1.230000000000000E-002    1.476037175909457E-031
 -1.220000000000000E-002    2.505648673869453E-031
 -1.210000000000000E-002    3.525868953567826E-031
 -1.200000000000000E-002    4.333391577677577E-031
 -1.190000000000000E-002    4.678835066968874E-031
 -1.180000000000000E-002    4.296339884379161E-031
 -1.170000000000000E-002    2.948354481195988E-031
 -1.160000000000000E-002    4.827735880500061E-032
 -1.150000000000000E-002   -3.103910066836113E-031
 -1.140000000000000E-002   -7.607354682755671E-031
 -1.130000000000000E-002   -1.257285485551160E-030
 -1.120000000000000E-002   -1.728391168248345E-030
 -1.110000000000000E-002   -2.079549348246999E-030
 -1.100000000000000E-002   -2.202199561313422E-030
 -1.090000000000000E-002   -1.988312181892447E-030
 -1.080000000000000E-002   -1.350117749458187E-030
 -1.070000000000000E-002   -2.431431706878820E-031
 -1.060000000000000E-002    1.310517978240557E-030
 -1.050000000000000E-002    3.202853474177867E-030
 -1.040000000000000E-002    5.229313164223771E-030
 -1.030000000000000E-002    7.091732501667361E-030
 -1.020000000000000E-002    8.418714507112479E-030
 -1.010000000000000E-002    8.805502750774116E-030
 -1.000000000000000E-002    7.872534597243821E-030
 -9.899999999999999E-003    5.338293396213615E-030
 -9.800000000000000E-003    1.098210802328414E-030
 -9.699999999999999E-003   -4.702179099615847E-030
 -9.599999999999999E-003   -1.161414591268179E-029
 -9.500000000000000E-003   -1.886774433455377E-029
 -9.399999999999999E-003   -2.540217713935687E-029
 -9.299999999999999E-003   -2.995331604474823E-029
 -9.200000000000000E-003   -3.119987160707605E-029
 -9.099999999999999E-003   -2.796018379258680E-029
 -8.999999999999999E-003   -1.942091753506809E-029
 -8.900000000000000E-003   -5.368671241979327E-030
 -8.799999999999999E-003    1.361246198384387E-029
 -8.699999999999999E-003    3.601810832712436E-029
 -8.600000000000000E-003    5.941412114151405E-029
 -8.499999999999999E-003    8.056979241620192E-029
 -8.399999999999999E-003    9.574698376002522E-029
 -8.300000000000000E-003    1.011363840157845E-028
 -8.199999999999999E-003    9.340662579042749E-029
 -8.100000000000000E-003    7.030669090081360E-029
 -8.000000000000000E-003    3.124113598049863E-029
 -7.899999999999999E-003   -2.227428493206650E-029
 -7.800000000000000E-003   -8.636839673398592E-029
 -7.699999999999999E-003   -1.548580433966159E-028
 -7.599999999999999E-003   -2.196249171522905E-028
 -7.499999999999999E-003   -2.713285668946435E-028
 -7.399999999999999E-003   -3.004080844203290E-028
 -7.299999999999999E-003   -2.982752353764045E-028
 -7.199999999999999E-003   -2.585603868297297E-028
 -7.100000000000000E-003   -1.782489388606439E-028
 -6.999999999999999E-003   -5.854541957972196E-029
 -6.899999999999999E-003    9.467094958680782E-029
 -6.800000000000000E-003    2.708846721964987E-028
 -6.699999999999999E-003    4.554924380783227E-028
 -6.599999999999999E-003    6.308033173954509E-028
 -6.499999999999999E-003    7.773658948171604E-028
 -6.399999999999999E-003    8.754561133960427E-028
 -6.299999999999999E-003    9.065537081901750E-028
 -6.199999999999999E-003    8.546720368187789E-028
 -6.100000000000000E-003    7.074818439859072E-028
 -5.999999999999999E-003    4.572691822566005E-028
 -5.899999999999999E-003    1.018682313479843E-028
 -5.800000000000000E-003   -3.542215690375726E-028
 -5.699999999999999E-003   -8.983210551682086E-028
 -5.599999999999999E-003   -1.507532568036677E-027
 -5.499999999999999E-003   -2.146240469252449E-027
 -5.399999999999999E-003   -2.763497633134247E-027
 -5.299999999999999E-003   -3.290982524406347E-027
 -5.199999999999999E-003   -3.642540207857245E-027
 -5.099999999999999E-003   -3.716550187740727E-027
 -4.999999999999999E-003   -3.402397950762002E-027
 -4.899999999999999E-003   -2.592075960538670E-027
 -4.799999999999999E-003   -1.197336688550855E-027
 -4.699999999999999E-003    8.281339222966020E-028
 -4.599999999999999E-003    3.463306007683997E-027
 -4.499999999999999E-003    6.594345369172197E-027
 -4.399999999999999E-003    9.993618930086090E-027
 -4.299999999999999E-003    1.330865443683449E-026
 -4.199999999999999E-003    1.606686939212065E-026
 -4.099999999999999E-003    1.770124796451922E-026
 -3.999999999999999E-003    1.760039029021384E-026
 -3.899999999999999E-003    1.518341594409952E-026
 -3.799999999999999E-003    9.996226189896604E-027
 -3.699999999999999E-003    1.820981876100797E-027
 -3.599999999999999E-003   -9.214049046757722E-027
 -3.499999999999999E-003   -2.254113882120285E-026
 -3.399999999999999E-003   -3.709557336906542E-026
 -3.299999999999999E-003   -5.131336436693552E-026
 -3.199999999999999E-003   -6.320069054420761E-026
 -3.099999999999999E-003   -7.048527463307519E-026
 -2.999999999999999E-003   -7.085044132792206E-026
 -2.899999999999999E-003   -6.224061459760705E-026
 -2.799999999999999E-003   -4.321369719031799E-026
 -2.699999999999999E-003   -1.330293936694716E-026
 -2.599999999999999E-003    2.665965603868908E-026
 -2.499999999999999E-003    7.431232661472517E-026
 -2.399999999999999E-003    1.256785595345288E-025
 -2.299999999999999E-003    1.752740870050741E-025
 -2.199999999999999E-003    2.164358778709571E-025
 -2.099999999999999E-003    2.418802933027617E-025
 -1.999999999999999E-003    2.444689879513888E-025
 -1.899999999999999E-003    2.181300142222663E-025
 -1.799999999999999E-003    1.588514713473691E-025
 -1.699999999999999E-003    6.564032958668572E-026
 -1.599999999999999E-003   -5.867708256191738E-026
 -1.499999999999999E-003   -2.069395426174675E-025
 -1.399999999999999E-003   -3.675359119710942E-025
 -1.299999999999999E-003   -5.247796176783423E-025
 -1.199999999999999E-003   -6.598214836793181E-025
 -1.099999999999999E-003   -7.520981644696736E-025
 -9.999999999999989E-004   -7.812552729644065E-025
 -8.999999999999990E-004   -7.294255974043121E-025
 -7.999999999999990E-004   -5.836874086650113E-025
 -6.999999999999989E-004   -3.384839694255296E-025
 -5.999999999999990E-004    2.244716178254580E-027
 -4.999999999999989E-004    4.234780089694328E-025
 -3.999999999999989E-004    8.983300452391706E-025
 -2.999999999999989E-004    1.388285897716256E-024
 -1.999999999999989E-004    1.844629246443947E-024
 -9.999999999999892E-005    2.211161680669041E-024
  1.084202172485504E-018    2.428224887284577E-024
  1.000000000000011E-004    2.437930981177884E-024
  2.000000000000011E-004    2.190384132609689E-024
  3.000000000000011E-004    1.650544629480270E-024
  4.000000000000011E-004    8.052444755679128E-025
  5.000000000000011E-004   -3.302722368461090E-025
  6.000000000000011E-004   -1.707035978904242E-024
  7.000000000000011E-004   -3.239105831918796E-024
  8.000000000000011E-004   -4.803265729262340E-024
  9.000000000000012E-004   -6.242488820627445E-024
  1.000000000000001E-003   -7.373839212568795E-024
  1.100000000000001E-003   -8.001197271487448E-024
  1.200000000000001E-003   -7.932767409455969E-024
  1.300000000000001E-003   -7.002775016066509E-024
  1.400000000000001E-003   -5.096091247169330E-024
  1.500000000000001E-003   -2.173815576541448E-024
  1.600000000000001E-003    1.702841421115180E-024
  1.700000000000001E-003    6.353593164893710E-024
  1.800000000000001E-003    1.146856115710612E-023
  1.900000000000001E-003    1.660969876031868E-023
  2.000000000000001E-003    2.122714648661949E-023
  2.100000000000001E-003    2.469250737192263E-023
  2.200000000000001E-003    2.634948869730240E-023
  2.300000000000001E-003    2.558036945226977E-023
  2.400000000000001E-003    2.188445576001434E-023
  2.500000000000001E-003    1.496227511350285E-023
  2.600000000000001E-003    4.797064681066010E-024
  2.700000000000001E-003   -8.276577481465565E-024
  2.800000000000001E-003   -2.352784097964665E-023
  2.900000000000001E-003   -3.981928688398456E-023
  3.000000000000001E-003   -5.563983556686733E-023
  3.100000000000001E-003   -6.918699323805104E-023
  3.200000000000001E-003   -7.849969965991481E-023
  3.300000000000001E-003   -8.163761251541186E-023
  3.400000000000001E-003   -7.689648564234584E-023
  3.500000000000001E-003   -6.304310005966223E-023
  3.600000000000001E-003   -3.954776437748164E-023
  3.700000000000001E-003   -6.788393222639504E-024
  3.800000000000001E-003    3.380162466558837E-023
  3.900000000000001E-003    7.966857955801163E-023
  4.000000000000001E-003    1.271793780925861E-022
  4.100000000000001E-003    1.717838000345297E-022
  4.200000000000001E-003    2.083035202936010E-022
  4.300000000000001E-003    2.313411035736732E-022
  4.400000000000001E-003    2.357885830457439E-022
  4.500000000000001E-003    2.174017178253934E-022
  4.600000000000002E-003    1.733937220825922E-022
  4.700000000000001E-003    1.029927901675686E-022
  4.800000000000001E-003    7.902119614246352E-024
  4.900000000000002E-003   -1.073992863324823E-022
  5.000000000000001E-003   -2.355716465454283E-022
  5.100000000000001E-003   -3.665905236858386E-022
  5.200000000000001E-003   -4.882124186445602E-022
  5.300000000000002E-003   -5.867362492179183E-022
  5.400000000000001E-003   -6.480411057522086E-022
  5.500000000000001E-003   -6.588526265859988E-022
  5.600000000000002E-003   -6.081619558532831E-022
  5.700000000000001E-003   -4.886948704688123E-022
  5.800000000000001E-003   -2.983061511770807E-022
  5.900000000000002E-003   -4.115940104954950E-023
  6.000000000000001E-003    2.714542864293911E-022
  6.100000000000001E-003    6.208001653603591E-022
  6.200000000000002E-003    9.810102665737910E-022
  6.300000000000002E-003    1.320111913742960E-021
  6.400000000000001E-003    1.601820674869955E-021
  6.500000000000001E-003    1.788084066832342E-021
  6.600000000000002E-003    1.842291736517753E-021
  6.700000000000001E-003    1.732989876647879E-021
  6.800000000000001E-003    1.437857679455815E-021
  6.900000000000002E-003    9.476282184027331E-022
  7.000000000000001E-003    2.695745756197862E-022
  7.100000000000001E-003   -5.698572723992314E-022
  7.200000000000002E-003   -1.523694812080644E-021
  7.300000000000002E-003   -2.524759215332151E-021
  7.400000000000001E-003   -3.487973467660520E-021
  7.500000000000001E-003   -4.314849546420611E-021
  7.600000000000002E-003   -4.900167907436983E-021
  7.700000000000001E-003   -5.140653763108891E-021
  7.800000000000001E-003   -4.945214184316150E-021
  7.900000000000001E-003   -4.246055928160988E-021
  8.000000000000002E-003   -3.009776379614843E-021
  8.100000000000001E-003   -1.247340052955778E-021
  8.200000000000001E-003    9.782587867077334E-022
  8.300000000000002E-003    3.547849663331936E-021
  8.400000000000001E-003    6.286550941451388E-021
  8.500000000000002E-003    8.969691194150320E-021
  8.600000000000002E-003    1.133465825901138E-020
  8.700000000000001E-003    1.309864744517614E-020
  8.800000000000002E-003    1.398169442735633E-020
  8.900000000000002E-003    1.373374942182949E-020
  9.000000000000001E-003    1.216391739925188E-020
  9.100000000000002E-003    9.169456250743479E-021
  9.200000000000002E-003    4.761699770027496E-021
  9.300000000000001E-003   -9.141113983287622E-022
  9.400000000000002E-003   -7.568060479747385E-021
  9.500000000000001E-003   -1.476645224957136E-020
  9.600000000000001E-003   -2.194633127755134E-020
  9.700000000000002E-003   -2.844460262513553E-020
  9.800000000000001E-003   -3.354154132682898E-020
  9.900000000000001E-003   -3.651709756158371E-020
  1.000000000000000E-002   -3.671695920406070E-020
  1.010000000000000E-002   -3.362392104384575E-020
  1.020000000000000E-002   -2.692893685967706E-020
  1.030000000000000E-002   -1.659530237834218E-020
  1.040000000000000E-002   -2.909039022080449E-021
  1.050000000000000E-002    1.349137012027294E-020
  1.060000000000000E-002    3.161195876465926E-020
  1.070000000000000E-002    5.013164723742866E-020
  1.080000000000000E-002    6.746462748840295E-020
  1.090000000000000E-002    8.185680763853981E-020
  1.100000000000000E-002    9.151338933624526E-020
  1.110000000000000E-002    9.475142147586873E-020
  1.120000000000000E-002    9.016801720906464E-020
  1.130000000000000E-002    7.681199143042660E-020
  1.140000000000000E-002    5.434447802232655E-020
  1.150000000000000E-002    2.317255881822124E-020
  1.160000000000000E-002   -1.546025724788769E-020
  1.170000000000000E-002   -5.944180034567736E-020
  1.180000000000000E-002   -1.058298221942843E-019
  1.190000000000000E-002   -1.509698660532085E-019
  1.200000000000000E-002   -1.906953424241219E-019
  1.210000000000000E-002   -2.206062272907780E-019
  1.220000000000000E-002   -2.364150232604413E-019
  1.230000000000000E-002   -2.343410822124716E-019
  1.240000000000000E-002   -2.115268042302224E-019
  1.250000000000000E-002   -1.664428611423074E-019
  1.260000000000000E-002   -9.924494000727617E-020
  1.270000000000000E-002   -1.204250332305032E-020
  1.280000000000000E-002    9.095879272291466E-020
  1.290000000000000E-002    2.034747802891616E-019
  1.300000000000000E-002    3.173456519094966E-019
  1.310000000000000E-002    4.229369010140938E-019
  1.320000000000000E-002    5.097357980127386E-019
  1.330000000000000E-002    5.671229993978932E-019
  1.340000000000000E-002    5.852799337773316E-019
  1.350000000000000E-002    5.561741383070790E-019
  1.360000000000000E-002    4.745483955096620E-019
  1.370000000000000E-002    3.388270470070789E-019
  1.380000000000000E-002    1.518467694466786E-019
  1.390000000000000E-002   -7.868059944971418E-020
  1.400000000000000E-002   -3.400560354027811E-019
  1.410000000000000E-002   -6.148969986074440E-019
  1.420000000000000E-002   -8.818951244194249E-019
  1.430000000000000E-002   -1.117032133778024E-018
  1.440000000000000E-002   -1.295218900031042E-018
  1.450000000000000E-002   -1.392279392440576E-018
  1.460000000000000E-002   -1.387161083379563E-018
  1.470000000000000E-002   -1.264214045603938E-018
  1.480000000000000E-002   -1.015353971604991E-018
  1.490000000000000E-002   -6.419052359889055E-019
  1.500000000000000E-002   -1.559201057574769E-019
  1.510000000000000E-002    4.192160979830154E-019
  1.520000000000000E-002    1.049049298744930E-018
  1.530000000000000E-002    1.689294370886736E-018
  1.540000000000000E-002    2.288082762887427E-018
  1.550000000000000E-002    2.789176904395555E-018
  1.560000000000000E-002    3.136019567441186E-018
  1.570000000000000E-002    3.276400362526272E-018
  1.580000000000000E-002    3.167438444120651E-018
  1.590000000000000E-002    2.780511226136125E-018
  1.600000000000000E-002    2.105715663540943E-018
  1.610000000000000E-002    1.155425519681439E-018
  1.620000000000000E-002   -3.347571612667711E-020
  1.630000000000000E-002   -1.399056131837824E-018
  1.640000000000000E-002   -2.855775506072532E-018
  1.650000000000000E-002   -4.298064903177009E-018
  1.660000000000000E-002   -5.606056028572106E-018
  1.670000000000000E-002   -6.653296902776061E-018
  1.680000000000000E-002   -7.316104634780646E-018
  1.690000000000000E-002   -7.484030130521758E-018
  1.700000000000000E-002   -7.070738184009946E-018
  1.710000000000000E-002   -6.024483523887155E-018
  1.720000000000000E-002   -4.337272705507628E-018
  1.730000000000000E-002   -2.051790026527309E-018
  1.740000000000000E-002    7.347942909477690E-019
  1.750000000000000E-002    3.870876279884112E-018
  1.760000000000000E-002    7.154875366501672E-018
  1.770000000000000E-002    1.034435364801133E-017
  1.780000000000000E-002    1.316972153518690E-017
  1.790000000000000E-002    1.535206640177965E-017
  1.800000000000000E-002    1.662424528206264E-017
  1.810000000000000E-002    1.675399555423309E-017
  1.820000000000000E-002    1.556748922024810E-017
  1.830000000000000E-002    1.297148830917008E-017
  1.840000000000000E-002    8.972127904867300E-018
  1.850000000000000E-002    3.688344228963744E-018
  1.860000000000000E-002   -2.641868344025401E-018
  1.870000000000000E-002   -9.663865641524661E-018