 -4.000000000000000E-002    0.000000000000000E+000
 -3.990000000000000E-002    0.000000000000000E+000
 -3.980000000000000E-002    0.000000000000000E+000
 -3.970000000000000E-002    0.000000000000000E+000
 -3.960000000000000E-002    0.000000000000000E+000
 -3.950000000000000E-002    0.000000000000000E+000
 -3.940000000000000E-002   -8.713283865604225E-027
 -3.930000000000000E-002   -5.192768900899649E-025
 -3.920000000000000E-002   -5.721689209030890E-024
 -3.910000000000000E-002   -3.398036028312710E-023
 -3.900000000000000E-002   -1.335051546162466E-022
 -3.890000000000000E-002   -3.581958196167652E-022
 -3.880000000000000E-002   -5.266368511004113E-022
 -3.870000000000000E-002    7.047415832849595E-022
 -3.860000000000000E-002    8.430421415593346E-021
 -3.850000000000000E-002    3.741624086377029E-020
 -3.840000000000000E-002    1.236954920512360E-019
 -3.830000000000000E-002    3.443655066719589E-019
 -3.820000000000000E-002    8.470167467637770E-019
 -3.810000000000000E-002    1.886873243011194E-018
 -3.800000000000000E-002    3.863167311973532E-018
 -3.790000000000000E-002    7.336112118721715E-018
 -3.780000000000000E-002    1.299282629995975E-017
 -3.770000000000000E-002    2.151726860166913E-017
 -3.760000000000000E-002    3.331047194173939E-017
 -3.750000000000000E-002    4.801013433436689E-017
 -3.740000000000000E-002    6.378126038758077E-017
 -3.730000000000000E-002    7.639983221871828E-017
 -3.720000000000000E-002    7.823416599966552E-017
 -3.710000000000000E-002    5.734147467862650E-017
 -3.700000000000000E-002   -2.971899150709691E-018
 -3.690000000000000E-002   -1.236531810573121E-016
 -3.680000000000000E-002   -3.279138650601487E-016
 -3.670000000000000E-002   -6.372015373862364E-016
 -3.660000000000000E-002   -1.064733394014776E-015
 -3.650000000000000E-002   -1.606518498066580E-015
 -3.640000000000000E-002   -2.230323967901789E-015
 -3.630000000000000E-002   -2.863748249631895E-015
 -3.620000000000000E-002   -3.383394440293031E-015
 -3.610000000000000E-002   -3.607958302504199E-015
 -3.600000000000000E-002   -3.298699509911254E-015
 -3.590000000000000E-002   -2.171026137058438E-015
 -3.580000000000000E-002    7.941119099621343E-017
 -3.570000000000000E-002    3.733835615386162E-015
 -3.560000000000000E-002    8.990410683514524E-015
 -3.550000000000000E-002    1.588986648563298E-014
 -3.540000000000000E-002    2.423283407984794E-014
 -3.530000000000000E-002    3.349888701629301E-014
 -3.520000000000000E-002    4.278083494649915E-014
 -3.510000000000000E-002    5.075040633268420E-014
 -3.500000000000000E-002    5.567237587689810E-014
 -3.490000000000000E-002    5.548264657649586E-014
 -3.480000000000000E-002    4.794147532267986E-014
 -3.470000000000000E-002    3.086565345706065E-014
 -3.460000000000000E-002    2.433371766695942E-015
 -3.450000000000000E-002   -3.845645369250306E-014
 -3.440000000000000E-002   -9.180122195320934E-014
 -3.430000000000000E-002   -1.561302836824680E-013
 -3.420000000000000E-002   -2.282099614341925E-013
 -3.410000000000000E-002   -3.028722123759300E-013
 -3.400000000000000E-002   -3.730184524804152E-013
 -3.390000000000000E-002   -4.298399716089963E-013
 -3.380000000000000E-002   -4.632790392692330E-013
 -3.370000000000000E-002   -4.627313217677425E-013
 -3.360000000000000E-002   -4.179628696539389E-013
 -3.350000000000000E-002   -3.201864935495018E-013
 -3.340000000000000E-002   -1.632167213716005E-013
 -3.330000000000000E-002    5.539662611262142E-014
 -3.320000000000000E-002    3.333665057606276E-013
 -3.310000000000000E-002    6.629062133108063E-013
 -3.300000000000000E-002    1.030300662255017E-012
 -3.290000000000000E-002    1.415880739983069E-012
 -3.280000000000000E-002    1.794436937955228E-012
 -3.270000000000000E-002    2.136072722702425E-012
 -3.260000000000000E-002    2.407462945291747E-012
 -3.250000000000000E-002    2.573456505895038E-012
 -3.240000000000000E-002    2.598945786348448E-012
 -3.230000000000000E-002    2.450922188604870E-012
 -3.220000000000000E-002    2.100648399559386E-012
 -3.210000000000000E-002    1.525896157786937E-012
 -3.200000000000000E-002    7.132191202943618E-013
 -3.190000000000000E-002   -3.397535605274319E-013
 -3.180000000000000E-002   -1.622018202236366E-012
 -3.170000000000000E-002   -3.106930018212647E-012
 -3.160000000000000E-002   -4.750057083573904E-012
 -3.150000000000000E-002   -6.487321637162463E-012
 -3.140000000000000E-002   -8.233687521935871E-012
 -3.130000000000000E-002   -9.882759154743395E-012
 -3.120000000000000E-002   -1.130773913503194E-011
 -3.110000000000000E-002   -1.236424320268564E-011
 -3.100000000000000E-002   -1.289544849878031E-011
 -3.090000000000000E-002   -1.273995994197090E-011
 -3.080000000000000E-002   -1.174257326468301E-011
 -3.070000000000000E-002   -9.767815349796953E-012
 -3.060000000000000E-002   -6.715767873730444E-012
 -3.050000000000000E-002   -2.539236274036162E-012
 -3.040000000000000E-002    2.739104173972696E-012
 -3.030000000000000E-002    9.011343972116629E-012
 -3.020000000000000E-002    1.607277702765220E-011
 -3.010000000000000E-002    2.361623833675765E-011
 -3.000000000000000E-002    3.123428171187452E-011
 -2.990000000000000E-002    3.843071465814899E-011
 -2.980000000000000E-002    4.464230764369224E-011
 -2.970000000000000E-002    4.927056792391084E-011
 -2.960000000000000E-002    5.172238610450420E-011
 -2.950000000000000E-002    5.145721374075747E-011
 -2.940000000000000E-002    4.803734810869466E-011
 -2.930000000000000E-002    4.117705895091761E-011
 -2.920000000000000E-002    3.078578064723984E-011
 -2.910000000000000E-002    1.700055875597671E-011
 -2.900000000000000E-002    2.034140584851631E-013
 -2.890000000000000E-002   -1.897965597725289E-011
 -2.880000000000000E-002   -3.969980297481963E-011
 -2.870000000000000E-002   -6.092645471143694E-011
 -2.860000000000000E-002   -8.150623773662833E-011
 -2.850000000000000E-002   -1.002354557972519E-010
 -2.840000000000000E-002   -1.159401866956331E-010
 -2.830000000000000E-002   -1.275567957562912E-010
 -2.820000000000000E-002   -1.342052665857117E-010
 -2.810000000000000E-002   -1.352481212896938E-010
 -2.800000000000000E-002   -1.303289280178660E-010
 -2.790000000000000E-002   -1.193865581125836E-010
 -2.780000000000000E-002   -1.026439942648777E-010
 -2.770000000000000E-002   -8.057356150267680E-011
 -2.760000000000000E-002   -5.384337807285713E-011
 -2.750000000000000E-002   -2.325244780756751E-011
 -2.740000000000000E-002    1.033644705011785E-011
 -2.730000000000000E-002    4.605624917981811E-011
 -2.720000000000000E-002    8.307833166308815E-011
 -2.710000000000000E-002    1.206312251781927E-010
 -2.700000000000000E-002    1.579912443401047E-010
 -2.690000000000000E-002    1.944452170612086E-010
 -2.680000000000000E-002    2.292297595505704E-010
 -2.670000000000000E-002    2.614561576489751E-010
 -2.660000000000000E-002    2.900336450587267E-010
 -2.650000000000000E-002    3.136061726266062E-010
 -2.640000000000000E-002    3.305185321564894E-010
 -2.630000000000000E-002    3.388263661903260E-010
 -2.620000000000000E-002    3.363609047127306E-010
 -2.610000000000000E-002    3.208540041398587E-010
 -2.600000000000000E-002    2.901219621360792E-010
 -2.590000000000000E-002    2.422987893295767E-010
 -2.580000000000000E-002    1.761020099484574E-010
 -2.570000000000000E-002    9.110702214850732E-011
 -2.560000000000000E-002   -1.199864358543824E-011
 -2.550000000000000E-002   -1.312123282642445E-010
 -2.540000000000000E-002   -2.630943765762577E-010
 -2.530000000000000E-002   -4.027532718357815E-010
 -2.520000000000000E-002   -5.439556794381116E-010
 -2.510000000000000E-002   -6.793685885132629E-010
 -2.500000000000000E-002   -8.009289278726754E-010
 -2.490000000000000E-002   -9.003221618108075E-010
 -2.480000000000000E-002   -9.695393293935869E-010
 -2.470000000000000E-002   -1.001471393687200E-009
 -2.460000000000000E-002   -9.904919864320949E-010
 -2.450000000000000E-002   -9.329774640108452E-010
 -2.440000000000000E-002   -8.277146146109876E-010
 -2.430000000000000E-002   -6.761532931514888E-010
 -2.420000000000000E-002   -4.824733394856732E-010
 -2.410000000000000E-002   -2.534505339554913E-010
 -2.400000000000000E-002    1.876399589896835E-012
 -2.390000000000000E-002    2.727160600528949E-010
 -2.380000000000000E-002    5.471742931592340E-010
 -2.370000000000000E-002    8.129901941142784E-010
 -2.360000000000000E-002    1.058296768516874E-009
 -2.350000000000000E-002    1.272339483904159E-009
 -2.340000000000000E-002    1.446090294476190E-009
 -2.330000000000000E-002    1.572703326475513E-009
 -2.320000000000000E-002    1.647774074821522E-009
 -2.310000000000000E-002    1.669384407488331E-009
 -2.300000000000000E-002    1.637937575574996E-009
 -2.290000000000000E-002    1.555810570654329E-009
 -2.280000000000000E-002    1.426871287511017E-009
 -2.270000000000000E-002    1.255925004640410E-009
 -2.260000000000000E-002    1.048161809643275E-009
 -2.250000000000000E-002    8.086796398700071E-010
 -2.240000000000000E-002    5.421489199214792E-010
 -2.230000000000000E-002    2.526679934711124E-010
 -2.220000000000000E-002   -5.616293538329641E-011
 -2.210000000000000E-002   -3.809517497247501E-010
 -2.200000000000000E-002   -7.180399626639240E-010
 -2.190000000000000E-002   -1.062904985829643E-009
 -2.180000000000000E-002   -1.409524053619013E-009
 -2.170000000000000E-002   -1.749801432210716E-009
 -2.160000000000000E-002   -2.073164903334074E-009
 -2.150000000000000E-002   -2.366431799105318E-009
 -2.140000000000000E-002   -2.614023050457499E-009
 -2.130000000000000E-002   -2.798574308521488E-009
 -2.120000000000000E-002   -2.901949120919440E-009
 -2.110000000000000E-002   -2.906614066891820E-009
 -2.100000000000000E-002   -2.797286204712296E-009
 -2.090000000000000E-002   -2.562719422581702E-009
 -2.080000000000000E-002   -2.197462058277924E-009
 -2.070000000000000E-002   -1.703395851254670E-009
 -2.060000000000000E-002   -1.090866101454271E-009
 -2.050000000000000E-002   -3.792300420360716E-010
 -2.040000000000000E-002    4.033115696593557E-010
 -2.030000000000000E-002    1.220679474025118E-009
 -2.020000000000000E-002    2.030682267567117E-009
 -2.010000000000000E-002    2.787515829483609E-009
 -2.000000000000000E-002    3.444842169063512E-009
 -1.990000000000000E-002    3.959228218587908E-009
 -1.980000000000000E-002    4.293665743442375E-009
 -1.970000000000000E-002    4.420861301971645E-009
 -1.960000000000000E-002    4.325982476812502E-009
 -1.950000000000000E-002    4.008572938446122E-009
 -1.940000000000000E-002    3.483407120686572E-009
 -1.930000000000000E-002    2.780138872632730E-009
 -1.920000000000000E-002    1.941705984190205E-009
 -1.910000000000000E-002    1.021564839428643E-009
 -1.900000000000000E-002    7.995104211846413E-011
 -1.890000000000000E-002   -8.205449557400752E-010
 -1.880000000000000E-002   -1.619710965439401E-009
 -1.870000000000000E-002   -2.264337357920275E-009
 -1.860000000000000E-002   -2.712314795012629E-009
 -1.850000000000000E-002   -2.935821137782028E-009
 -1.840000000000000E-002   -2.923295227470823E-009
 -1.830000000000000E-002   -2.680013524983560E-009
 -1.820000000000000E-002   -2.227217688863072E-009
 -1.810000000000000E-002   -1.599898263906203E-009
 -1.800000000000000E-002   -8.434709154053644E-010
 -1.790000000000000E-002   -9.712843771130070E-012
 -1.780000000000000E-002    8.476004149346022E-010
 -1.770000000000000E-002    1.676875482529289E-009
 -1.760000000000000E-002    2.432241163670490E-009
 -1.750000000000000E-002    3.076062671292920E-009
 -1.740000000000000E-002    3.580167600839923E-009
 -1.730000000000000E-002    3.925682924602266E-009
 -1.720000000000000E-002    4.101561468339909E-009
 -1.710000000000000E-002    4.102054742508648E-009
 -1.700000000000000E-002    3.923547266994587E-009
 -1.690000000000000E-002    3.561280276408912E-009
 -1.680000000000000E-002    3.006547015611362E-009
 -1.670000000000000E-002    2.244927806220759E-009
 -1.660000000000000E-002    1.256037771071750E-009
 -1.650000000000000E-002    1.510359031340512E-011
 -1.640000000000000E-002   -1.503530080148296E-009
 -1.630000000000000E-002   -3.321118132642351E-009
 -1.620000000000000E-002   -5.447869171532302E-009
 -1.610000000000000E-002   -7.875579054879369E-009
 -1.600000000000000E-002   -1.057038825943714E-008
 -1.590000000000000E-002   -1.346660808108490E-008
 -1.580000000000000E-002   -1.646258541536722E-008
 -1.570000000000000E-002   -1.941947857364472E-008
 -1.560000000000000E-002   -2.216363766948606E-008
 -1.550000000000000E-002   -2.449298590168258E-008
 -1.540000000000000E-002   -2.618744965572841E-008
 -1.530000000000000E-002   -2.702310717541086E-008
 -1.520000000000000E-002   -2.678933617482003E-008
 -1.510000000000000E-002   -2.530789329166403E-008
 -1.500000000000000E-002   -2.245261250165214E-008
 -1.490000000000000E-002   -1.816825440033762E-008
 -1.480000000000000E-002   -1.248704293994530E-008
 -1.470000000000000E-002   -5.541540860096794E-009
 -1.460000000000000E-002    2.427213246408573E-009
 -1.450000000000000E-002    1.106693953803141E-008
 -1.440000000000000E-002    1.991699754372526E-008
 -1.430000000000000E-002    2.841661336881274E-008
 -1.420000000000000E-002    3.591762381882075E-008
 -1.410000000000000E-002    4.170052729301885E-008
 -1.400000000000000E-002    4.499246635894501E-008
 -1.390000000000000E-002    4.498524144720938E-008
 -1.380000000000000E-002    4.085181100902433E-008
 -1.370000000000000E-002    3.175970534416957E-008
 -1.360000000000000E-002    1.688037382665390E-008
 -1.350000000000000E-002   -4.606570466138553E-009
 -1.340000000000000E-002   -3.351406341166841E-008
 -1.330000000000000E-002   -7.065294983179542E-008
 -1.320000000000000E-002   -1.168408006635185E-007
 -1.310000000000000E-002   -1.729130886184459E-007
 -1.300000000000000E-002   -2.397347176845135E-007
 -1.290000000000000E-002   -3.182101331241450E-007
 -1.280000000000000E-002   -4.092899879002447E-007
 -1.270000000000000E-002   -5.139735763909185E-007
 -1.260000000000000E-002   -6.333052891256489E-007
 -1.250000000000000E-002   -7.683650146862304E-007
 -1.240000000000000E-002   -9.202527649555799E-007
 -1.230000000000000E-002   -1.090068593880192E-006
 -1.220000000000000E-002   -1.278889701060994E-006
 -1.210000000000000E-002   -1.487746099489145E-006
 -1.200000000000000E-002   -1.717597482355634E-006
 -1.190000000000000E-002   -1.969315937184796E-006
 -1.180000000000000E-002   -2.243672537733051E-006
 -1.170000000000000E-002   -2.541334334743165E-006
 -1.160000000000000E-002   -2.862869138795587E-006
 -1.150000000000000E-002   -3.208762058673648E-006
 -1.140000000000000E-002   -3.579439498107205E-006
 -1.130000000000000E-002   -3.975303939417805E-006
 -1.120000000000000E-002   -4.396772843077536E-006
 -1.110000000000000E-002   -4.844322003053365E-006
 -1.100000000000000E-002   -5.318529613369799E-006
 -1.090000000000000E-002   -5.820115735340216E-006
 -1.080000000000000E-002   -6.349979580652299E-006
 -1.070000000000000E-002   -6.909225170908222E-006
 -1.060000000000000E-002   -7.499177870744503E-006
 -1.050000000000000E-002   -8.121389916374312E-006
 -1.040000000000000E-002   -8.777635736951656E-006
 -1.030000000000000E-002   -9.469899866014928E-006
 -1.020000000000000E-002   -1.020034994347204E-005
 -1.010000000000000E-002   -1.097131488168326E-005
 -1.000000000000000E-002   -1.178525145069243E-005
 -9.899999999999999E-003   -1.264472300501006E-005
 -9.800000000000000E-003   -1.355237566949609E-005
 -9.699999999999999E-003   -1.451092369139261E-005
 -9.599999999999999E-003   -1.552314753542966E-005
 -9.500000000000000E-003   -1.659190618733408E-005
 -9.399999999999999E-003   -1.772015090040361E-005
 -9.299999999999999E-003   -1.891096119845616E-005
 -9.200000000000000E-003   -2.016758072380752E-005
 -9.099999999999999E-003   -2.149346147125727E-005
 -8.999999999999999E-003   -2.289231487189572E-005
 -8.900000000000000E-003   -2.436815478484333E-005
 -8.799999999999999E-003   -2.592534170885568E-005
 -8.699999999999999E-003   -2.756861345032175E-005
 -8.600000000000000E-003   -2.930311473091841E-005
 -8.499999999999999E-003   -3.113440157910822E-005
 -8.399999999999999E-003   -3.306844333421828E-005
 -8.300000000000000E-003   -3.511161108865676E-005
 -8.199999999999999E-003   -3.727066054174692E-005
 -8.100000000000000E-003   -3.955268764007759E-005
 -8.000000000000000E-003   -4.196510373306379E-005
 -7.899999999999999E-003   -4.451559763521690E-005
 -7.800000000000000E-003   -4.721210013225992E-005
 -7.699999999999999E-003   -5.006275552521540E-005
 -7.599999999999999E-003   -5.307590540649402E-005
 -7.499999999999999E-003   -5.626008470455413E-005
 -7.399999999999999E-003   -5.962402531273366E-005
 -7.299999999999999E-003   -6.317667689795170E-005
 -7.199999999999999E-003   -6.692725045658790E-005
 -7.100000000000000E-003   -7.088525035426970E-005
 -6.999999999999999E-003   -7.506055458022674E-005
 -6.899999999999999E-003   -7.946344532584217E-005
 -6.800000000000000E-003   -8.410470826528939E-005
 -6.699999999999999E-003   -8.899570378357525E-005
 -6.599999999999999E-003   -9.414840341939085E-005
 -6.499999999999999E-003   -9.957547244844828E-005
 -6.399999999999999E-003   -1.052903360233032E-004
 -6.299999999999999E-003   -1.113071943564526E-004
 -6.199999999999999E-003   -1.176410654237110E-004
 -6.100000000000000E-003   -1.243078244965764E-004
 -5.999999999999999E-003   -1.313242047814860E-004
 -5.899999999999999E-003   -1.387077710319440E-004
 -5.800000000000000E-003   -1.464769619340480E-004
 -5.699999999999999E-003   -1.546510218289634E-004
 -5.599999999999999E-003   -1.632500243292931E-004
 -5.499999999999999E-003   -1.722948419728001E-004
 -5.399999999999999E-003   -1.818071078130331E-004
 -5.299999999999999E-003   -1.918092244723819E-004
 -5.199999999999999E-003   -2.023243632203963E-004
 -5.099999999999999E-003   -2.133764719045744E-004
 -4.999999999999999E-003   -2.249902449092565E-004
 -4.899999999999999E-003   -2.371912000090821E-004
 -4.799999999999999E-003   -2.500057043011195E-004
 -4.699999999999999E-003   -2.634610357411337E-004
 -4.599999999999999E-003   -2.775854546437425E-004
 -4.499999999999999E-003   -2.924082254423894E-004
 -4.399999999999999E-003   -3.079597991106211E-004
 -4.299999999999999E-003   -3.242718055118234E-004
 -4.199999999999999E-003   -3.413772074872803E-004
 -4.099999999999999E-003   -3.593103797284146E-004
 -3.999999999999999E-003   -3.781072107367290E-004
 -3.899999999999999E-003   -3.978051847693149E-004
 -3.799999999999999E-003   -4.184433569950096E-004
 -3.699999999999999E-003   -4.400625959560654E-004
 -3.599999999999999E-003   -4.627054868353444E-004
 -3.499999999999999E-003   -4.864163825366537E-004
 -3.399999999999999E-003   -5.112414047053624E-004
 -3.299999999999999E-003   -5.372285057784525E-004
 -3.199999999999999E-003   -5.644273141365021E-004
 -3.099999999999999E-003   -5.928892191719413E-004
 -2.999999999999999E-003   -6.226672906232877E-004
 -2.899999999999999E-003   -6.538162113434703E-004
 -2.799999999999999E-003   -6.863923472227178E-004
 -2.699999999999999E-003   -7.204536688360285E-004
 -2.599999999999999E-003   -7.560597457948980E-004
 -2.499999999999999E-003   -7.932717394083164E-004
 -2.399999999999999E-003   -8.321525073781322E-004
 -2.299999999999999E-003   -8.727667814178620E-004
 -2.199999999999999E-003   -9.151809076227537E-004
 -2.099999999999999E-003   -9.594634458738408E-004
 -1.999999999999999E-003   -1.005684927979015E-003
 -1.899999999999999E-003   -1.053918221618038E-003
 -1.799999999999999E-003   -1.104238701314057E-003
 -1.699999999999999E-003   -1.156724235477046E-003
 -1.599999999999999E-003   -1.211455472084666E-003
 -1.499999999999999E-003   -1.268516128525243E-003
 -1.399999999999999E-003   -1.327992696805100E-003
 -1.299999999999999E-003   -1.389974847836789E-003
 -1.199999999999999E-003   -1.454555173950333E-003
 -1.099999999999999E-003   -1.521829567471666E-003
 -9.999999999999989E-004   -1.591896872699370E-003
 -8.999999999999990E-004   -1.664858772282087E-003
 -7.999999999999990E-004   -1.740819787483682E-003
 -6.999999999999989E-004   -1.819887251410856E-003
 -5.999999999999990E-004   -1.902170843285547E-003
 -4.999999999999989E-004   -1.987782947178564E-003
 -3.999999999999989E-004   -2.076837914373996E-003
 -2.999999999999989E-004   -2.169452546573367E-003
 -1.999999999999989E-004   -2.265745774807080E-003
 -9.999999999999892E-005   -2.365838918572719E-003
  1.084202172485504E-018   -2.469855206229156E-003
  1.000000000000011E-004   -2.577920598890534E-003
  2.000000000000011E-004   -2.690163569284751E-003
  3.000000000000011E-004   -2.806715112620109E-003
  4.000000000000011E-004   -2.927709098355742E-003
  5.000000000000011E-004   -3.053282844977509E-003
  6.000000000000011E-004   -3.183576546322160E-003
  7.000000000000011E-004   -3.318734681213812E-003
  8.000000000000011E-004   -3.458904245036707E-003
  9.000000000000012E-004   -3.604236921325351E-003
  1.000000000000001E-003   -3.754887474449947E-003
  1.100000000000001E-003   -3.911014541090954E-003
  1.200000000000001E-003   -4.072780324786281E-003
  1.300000000000001E-003   -4.240349922158889E-003
  1.400000000000001E-003   -4.413892487961821E-003
  1.500000000000001E-003   -4.593578897986826E-003
  1.600000000000001E-003   -4.779583183596704E-003
  1.700000000000001E-003   -4.972081444441479E-003
  1.800000000000001E-003   -5.171252163200285E-003
  1.900000000000001E-003   -5.377274675966633E-003
  2.000000000000001E-003   -5.590331412442942E-003
  2.100000000000001E-003   -5.810605058245367E-003
  2.200000000000001E-003   -6.038280896715957E-003
  2.300000000000001E-003   -6.273544743459878E-003
  2.400000000000001E-003   -6.516584276487391E-003
  2.500000000000001E-003   -6.767589847946177E-003
  2.600000000000001E-003   -7.026751934995305E-003
  2.700000000000001E-003   -7.294264382717762E-003
  2.800000000000001E-003   -7.570323184572575E-003
  2.900000000000001E-003   -7.855125970675170E-003
  3.000000000000001E-003   -8.148872380091061E-003
  3.100000000000001E-003   -8.451763704153134E-003
  3.200000000000001E-003   -8.764004577430247E-003
  3.300000000000001E-003   -9.085799691212008E-003
  3.400000000000001E-003   -9.417357084169464E-003
  3.500000000000001E-003   -9.758884025770269E-003
  3.600000000000001E-003   -1.011059012865088E-002
  3.700000000000001E-003   -1.047268291187579E-002
  3.800000000000001E-003   -1.084537088386873E-002
  3.900000000000001E-003   -1.122886115052866E-002
  4.000000000000001E-003   -1.162335985949069E-002
  4.100000000000001E-003   -1.202907187000251E-002
  4.200000000000001E-003   -1.244619840745270E-002
  4.300000000000001E-003   -1.287493864065503E-002
  4.400000000000001E-003   -1.331548971733234E-002
  4.500000000000001E-003   -1.376804420613130E-002
  4.600000000000002E-003   -1.423279392067226E-002
  4.700000000000001E-003   -1.470992387011726E-002
  4.800000000000001E-003   -1.519961883993388E-002
  4.900000000000002E-003   -1.570205804786651E-002
  5.000000000000001E-003   -1.621741793817344E-002
  5.100000000000001E-003   -1.674586966222944E-002
  5.200000000000001E-003   -1.728758255414080E-002
  5.300000000000002E-003   -1.784272005805863E-002
  5.400000000000001E-003   -1.841143840502879E-002
  5.500000000000001E-003   -1.899389229794649E-002
  5.600000000000002E-003   -1.959022926154564E-002
  5.700000000000001E-003   -2.020058956003455E-002
  5.800000000000001E-003   -2.082510627281021E-002
  5.900000000000002E-003   -2.146390612450835E-002
  6.000000000000001E-003   -2.211710607431322E-002
  6.100000000000001E-003   -2.278481445823367E-002
  6.200000000000002E-003   -2.346712963607489E-002
  6.300000000000002E-003   -2.416414065823858E-002
  6.400000000000001E-003   -2.487592362815393E-002
  6.500000000000001E-003   -2.560254490291296E-002
  6.600000000000002E-003   -2.634405602904321E-002
  6.700000000000001E-003   -2.710049905972229E-002
  6.800000000000001E-003   -2.787190148975380E-002
  6.900000000000002E-003   -2.865827492230415E-002
  7.000000000000001E-003   -2.945962276128040E-002
  7.100000000000001E-003   -3.027592785680989E-002
  7.200000000000002E-003   -3.110716267746718E-002
  7.300000000000002E-003   -3.195327868628850E-002
  7.400000000000001E-003   -3.281421284161078E-002
  7.500000000000001E-003   -3.368988868563421E-002
  7.600000000000002E-003   -3.458020999061275E-002
  7.700000000000001E-003   -3.548505994219672E-002
  7.800000000000001E-003   -3.640430528582655E-002
  7.900000000000001E-003   -3.733779317480702E-002
  8.000000000000002E-003   -3.828534923936199E-002
  8.100000000000001E-003   -3.924678233138978E-002
  8.200000000000001E-003   -4.022187387566491E-002
  8.300000000000002E-003   -4.121038162449741E-002
  8.400000000000001E-003   -4.221205024546539E-002
  8.500000000000002E-003   -4.322659113421107E-002
  8.600000000000002E-003   -4.425369781295557E-002
  8.700000000000001E-003   -4.529303528431047E-002
  8.800000000000002E-003   -4.634424283194050E-002
  8.900000000000002E-003   -4.740693847567276E-002
  9.000000000000001E-003   -4.848070929863103E-002
  9.100000000000002E-003   -4.956511487979921E-002
  9.200000000000002E-003   -5.065968900516436E-002
  9.300000000000001E-003   -5.176393423661355E-002
  9.400000000000002E-003   -5.287732856889238E-002
  9.500000000000001E-003   -5.399931695142497E-002
  9.600000000000001E-003   -5.512930956392756E-002
  9.700000000000002E-003   -5.626669305263785E-002
  9.800000000000001E-003   -5.741081571119749E-002
  9.900000000000001E-003   -5.856099936600964E-002
  1.000000000000000E-002   -5.971652360297796E-002
  1.010000000000000E-002   -6.087664186752867E-002
  1.020000000000000E-002   -6.204057425322104E-002
  1.030000000000000E-002   -6.320749701086324E-002
  1.040000000000000E-002   -6.437656326839564E-002
  1.050000000000000E-002   -6.554688162295395E-002
  1.060000000000000E-002   -6.671753603253944E-002
  1.070000000000000E-002   -6.788756285222131E-002
  1.080000000000000E-002   -6.905597227718675E-002
  1.090000000000000E-002   -7.022173754884352E-002
  1.100000000000000E-002   -7.138378659585301E-002
  1.110000000000000E-002   -7.254102594778801E-002
  1.120000000000000E-002   -7.369231477996128E-002
  1.130000000000000E-002   -7.483647618297413E-002
  1.140000000000000E-002   -7.597230613681197E-002
  1.150000000000000E-002   -7.709855497797558E-002
  1.160000000000000E-002   -7.821393301106000E-002
  1.170000000000000E-002   -7.931711915038253E-002
  1.180000000000000E-002   -8.040675906198851E-002
  1.190000000000000E-002   -8.148144886736632E-002
  1.200000000000000E-002   -8.253975174620022E-002
  1.210000000000000E-002   -8.358019440052165E-002
  1.220000000000000E-002   -8.460126609699593E-002
  1.230000000000000E-002   -8.560141601570746E-002
  1.240000000000000E-002   -8.657906179392139E-002
  1.250000000000000E-002   -8.753257577640741E-002
  1.260000000000000E-002   -8.846030110385504E-002
  1.270000000000000E-002   -8.936053723137499E-002
  1.280000000000000E-002   -9.023156615863684E-002
  1.290000000000000E-002   -9.107162115471878E-002
  1.300000000000000E-002   -9.187890918290133E-002
  1.310000000000000E-002   -9.265160080553962E-002
  1.320000000000000E-002   -9.338783369189738E-002
  1.330000000000000E-002   -9.408572643136741E-002
  1.340000000000000E-002   -9.474335557992801E-002
  1.350000000000000E-002   -9.535877490174673E-002
  1.360000000000000E-002   -9.593000245056414E-002
  1.370000000000000E-002   -9.645504385479194E-002
  1.380000000000000E-002   -9.693186359597966E-002
  1.390000000000000E-002   -9.735841484487921E-002
  1.400000000000000E-002   -9.773261600701769E-002
  1.410000000000000E-002   -9.805236952273454E-002
  1.420000000000000E-002   -9.831555144954851E-002
  1.430000000000000E-002   -9.852001482170068E-002
  1.440000000000000E-002   -9.866359779486877E-002
  1.450000000000000E-002   -9.874412070389801E-002
  1.460000000000000E-002   -9.875939009149914E-002
  1.470000000000000E-002   -9.870719389673825E-002
  1.480000000000000E-002   -9.858530404126271E-002
  1.490000000000000E-002   -9.839148894524287E-002
  1.500000000000000E-002   -9.812350239116581E-002
  1.510000000000000E-002   -9.777908702617678E-002
  1.520000000000000E-002   -9.735599562624533E-002
  1.530000000000000E-002   -9.685195320729059E-002
  1.540000000000000E-002   -9.626471082035845E-002
  1.550000000000000E-002   -9.559200085013966E-002
  1.560000000000000E-002   -9.483156317616979E-002
  1.570000000000000E-002   -9.398114354376584E-002
  1.580000000000000E-002   -9.303850513763076E-002
  1.590000000000000E-002   -9.200139747089538E-002
  1.600000000000000E-002   -9.086760389716553E-002
  1.610000000000000E-002   -8.963490700183162E-002
  1.620000000000000E-002   -8.830111527614930E-002
  1.630000000000000E-002   -8.686404924000907E-002
  1.640000000000000E-002   -8.532155100622685E-002
  1.650000000000000E-002   -8.367148942841077E-002
  1.660000000000000E-002   -8.191175237803720E-002
  1.670000000000000E-002   -8.004026977764889E-002
  1.680000000000000E-002   -7.805499321507899E-002
  1.690000000000000E-002   -7.595390588472599E-002
  1.700000000000000E-002   -7.373502672071287E-002
  1.710000000000000E-002   -7.139641705768322E-002
  1.720000000000000E-002   -6.893618052758289E-002
  1.730000000000000E-002   -6.635245843026903E-002
  1.740000000000000E-002   -6.364344231844608E-002
  1.750000000000000E-002   -6.080737118330745E-002
  1.760000000000000E-002   -5.784253074538971E-002
  1.770000000000000E-002   -5.474726818926292E-002
  1.780000000000000E-002   -5.151998604395518E-002
  1.790000000000000E-002   -4.815914013238459E-002
  1.800000000000000E-002   -4.466325226374762E-002
  1.810000000000000E-002   -4.103090964790901E-002
  1.820000000000000E-002   -3.726076410190073E-002
  1.830000000000000E-002   -3.335154187592788E-002
  1.840000000000000E-002   -2.930203766020605E-002
  1.850000000000000E-002   -2.511112447751548E-002
  1.860000000000000E-002   -2.077775661626945E-002
  1.870000000000000E-002   -1.630096303456937E-002